
Host: hrgrimsl-XPS-13-9370

Timers On : Mon Sep 21 19:11:55 2020
Timers Off: Mon Sep 21 19:11:55 2020

Wall Time:        0.78 seconds

Total PK formation time     :      0.017u      0.000s      0.010w      1 calls
HF: Form H                  :      0.000u      0.000s      0.001w      1 calls
HF: Form S/X                :      0.000u      0.000s      0.000w      1 calls
HF: Guess                   :      0.000u      0.000s      0.000w      1 calls
HF: Form G                  :      0.000u      0.000s      0.000w      2 calls
JK: D                       :      0.000u      0.000s      0.000w      2 calls
JK: USO2AO                  :      0.000u      0.000s      0.000w      2 calls
JK: JK                      :      0.000u      0.000s      0.000w      2 calls
PK computes JK              :      0.000u      0.000s      0.000w      2 calls
JK: AO2USO                  :      0.000u      0.000s      0.000w      2 calls
HF: Form F                  :      0.000u      0.000s      0.000w      2 calls
HF: DIIS                    :      0.000u      0.000s      0.001w      2 calls
DIISManager::add_entry      :      0.000u      0.000s      0.000w      2 calls
DIISManager::extrapolate    :      0.000u      0.000s      0.000w      1 calls
bMatrix setup               :      0.000u      0.000s      0.000w      1 calls
bMatrix pseudoinverse       :      0.000u      0.000s      0.000w      1 calls
New vector                  :      0.000u      0.000s      0.000w      1 calls
HF: Form C                  :      0.000u      0.000s      0.000w      2 calls
HF: Form D                  :      0.000u      0.000s      0.000w      2 calls

-----------------------------------------------------------
Total PK formation time     :      0.017u      0.000s      0.010w      1 calls
HF: Form H                  :      0.000u      0.000s      0.001w      1 calls
HF: Form S/X                :      0.000u      0.000s      0.000w      1 calls
HF: Guess                   :      0.000u      0.000s      0.000w      1 calls
HF: Form G                  :      0.000u      0.000s      0.000w      2 calls
| JK: D                     :      0.000u      0.000s      0.000w      2 calls
| JK: USO2AO                :      0.000u      0.000s      0.000w      2 calls
| JK: JK                    :      0.000u      0.000s      0.000w      2 calls
| | PK computes JK          :      0.000u      0.000s      0.000w      2 calls
| JK: AO2USO                :      0.000u      0.000s      0.000w      2 calls
HF: Form F                  :      0.000u      0.000s      0.000w      2 calls
HF: DIIS                    :      0.000u      0.000s      0.001w      2 calls
| DIISManager::add_entry    :      0.000u      0.000s      0.000w      2 calls
| DIISManager::extrapolate  :      0.000u      0.000s      0.000w      1 calls
| | bMatrix setup           :      0.000u      0.000s      0.000w      1 calls
| | bMatrix pseudoinverse   :      0.000u      0.000s      0.000w      1 calls
| | New vector              :      0.000u      0.000s      0.000w      1 calls
HF: Form C                  :      0.000u      0.000s      0.000w      2 calls
HF: Form D                  :      0.000u      0.000s      0.000w      2 calls

***********************************************************

Host: hrgrimsl-XPS-13-9370

Timers On : Mon Sep 21 19:12:18 2020
Timers Off: Mon Sep 21 19:12:19 2020

Wall Time:        0.83 seconds

Total PK formation time     :      0.017u      0.000s      0.011w      1 calls
HF: Form H                  :      0.000u      0.000s      0.001w      1 calls
HF: Form S/X                :      0.000u      0.000s      0.000w      1 calls
HF: Guess                   :      0.000u      0.000s      0.000w      1 calls
HF: Form G                  :      0.000u      0.000s      0.000w      2 calls
JK: D                       :      0.000u      0.000s      0.000w      2 calls
JK: USO2AO                  :      0.000u      0.000s      0.000w      2 calls
JK: JK                      :      0.000u      0.000s      0.000w      2 calls
PK computes JK              :      0.000u      0.000s      0.000w      2 calls
JK: AO2USO                  :      0.000u      0.000s      0.000w      2 calls
HF: Form F                  :      0.000u      0.000s      0.000w      2 calls
HF: DIIS                    :      0.000u      0.000s      0.000w      2 calls
DIISManager::add_entry      :      0.000u      0.000s      0.000w      2 calls
DIISManager::extrapolate    :      0.000u      0.000s      0.000w      1 calls
bMatrix setup               :      0.000u      0.000s      0.000w      1 calls
bMatrix pseudoinverse       :      0.000u      0.000s      0.000w      1 calls
New vector                  :      0.000u      0.000s      0.000w      1 calls
HF: Form C                  :      0.000u      0.000s      0.000w      2 calls
HF: Form D                  :      0.000u      0.000s      0.000w      2 calls

-----------------------------------------------------------
Total PK formation time     :      0.017u      0.000s      0.011w      1 calls
HF: Form H                  :      0.000u      0.000s      0.001w      1 calls
HF: Form S/X                :      0.000u      0.000s      0.000w      1 calls
HF: Guess                   :      0.000u      0.000s      0.000w      1 calls
HF: Form G                  :      0.000u      0.000s      0.000w      2 calls
| JK: D                     :      0.000u      0.000s      0.000w      2 calls
| JK: USO2AO                :      0.000u      0.000s      0.000w      2 calls
| JK: JK                    :      0.000u      0.000s      0.000w      2 calls
| | PK computes JK          :      0.000u      0.000s      0.000w      2 calls
| JK: AO2USO                :      0.000u      0.000s      0.000w      2 calls
HF: Form F                  :      0.000u      0.000s      0.000w      2 calls
HF: DIIS                    :      0.000u      0.000s      0.000w      2 calls
| DIISManager::add_entry    :      0.000u      0.000s      0.000w      2 calls
| DIISManager::extrapolate  :      0.000u      0.000s      0.000w      1 calls
| | bMatrix setup           :      0.000u      0.000s      0.000w      1 calls
| | bMatrix pseudoinverse   :      0.000u      0.000s      0.000w      1 calls
| | New vector              :      0.000u      0.000s      0.000w      1 calls
HF: Form C                  :      0.000u      0.000s      0.000w      2 calls
HF: Form D                  :      0.000u      0.000s      0.000w      2 calls

***********************************************************

Host: hrgrimsl-XPS-13-9370

Timers On : Mon Sep 21 19:16:10 2020
Timers Off: Mon Sep 21 19:16:10 2020

Wall Time:        0.33 seconds


-----------------------------------------------------------

***********************************************************

Host: hrgrimsl-XPS-13-9370

Timers On : Mon Sep 21 19:18:07 2020
Timers Off: Mon Sep 21 19:18:08 2020

Wall Time:        0.35 seconds


-----------------------------------------------------------

***********************************************************

Host: hrgrimsl-XPS-13-9370

Timers On : Mon Sep 21 19:19:59 2020
Timers Off: Mon Sep 21 19:19:59 2020

Wall Time:        0.44 seconds

Total PK formation time     :      0.000u      0.000s      0.007w      1 calls
HF: Form H                  :      0.000u      0.000s      0.000w      1 calls
HF: Form S/X                :      0.000u      0.000s      0.000w      1 calls
HF: Guess                   :      0.000u      0.000s      0.000w      1 calls
HF: Form G                  :      0.000u      0.000s      0.000w      2 calls
JK: D                       :      0.000u      0.000s      0.000w      2 calls
JK: USO2AO                  :      0.000u      0.000s      0.000w      2 calls
JK: JK                      :      0.000u      0.000s      0.000w      2 calls
PK computes JK              :      0.000u      0.000s      0.000w      2 calls
JK: AO2USO                  :      0.000u      0.000s      0.000w      2 calls
HF: Form F                  :      0.000u      0.000s      0.000w      2 calls
HF: DIIS                    :      0.000u      0.000s      0.000w      2 calls
DIISManager::add_entry      :      0.000u      0.000s      0.000w      2 calls
DIISManager::extrapolate    :      0.000u      0.000s      0.000w      1 calls
bMatrix setup               :      0.000u      0.000s      0.000w      1 calls
bMatrix pseudoinverse       :      0.000u      0.000s      0.000w      1 calls
New vector                  :      0.000u      0.000s      0.000w      1 calls
HF: Form C                  :      0.000u      0.000s      0.000w      2 calls
HF: Form D                  :      0.000u      0.000s      0.000w      2 calls

-----------------------------------------------------------
Total PK formation time     :      0.000u      0.000s      0.007w      1 calls
HF: Form H                  :      0.000u      0.000s      0.000w      1 calls
HF: Form S/X                :      0.000u      0.000s      0.000w      1 calls
HF: Guess                   :      0.000u      0.000s      0.000w      1 calls
HF: Form G                  :      0.000u      0.000s      0.000w      2 calls
| JK: D                     :      0.000u      0.000s      0.000w      2 calls
| JK: USO2AO                :      0.000u      0.000s      0.000w      2 calls
| JK: JK                    :      0.000u      0.000s      0.000w      2 calls
| | PK computes JK          :      0.000u      0.000s      0.000w      2 calls
| JK: AO2USO                :      0.000u      0.000s      0.000w      2 calls
HF: Form F                  :      0.000u      0.000s      0.000w      2 calls
HF: DIIS                    :      0.000u      0.000s      0.000w      2 calls
| DIISManager::add_entry    :      0.000u      0.000s      0.000w      2 calls
| DIISManager::extrapolate  :      0.000u      0.000s      0.000w      1 calls
| | bMatrix setup           :      0.000u      0.000s      0.000w      1 calls
| | bMatrix pseudoinverse   :      0.000u      0.000s      0.000w      1 calls
| | New vector              :      0.000u      0.000s      0.000w      1 calls
HF: Form C                  :      0.000u      0.000s      0.000w      2 calls
HF: Form D                  :      0.000u      0.000s      0.000w      2 calls

***********************************************************

Host: hrgrimsl-XPS-13-9370

Timers On : Mon Sep 21 19:20:37 2020
Timers Off: Mon Sep 21 19:20:38 2020

Wall Time:        0.47 seconds

Total PK formation time     :      0.017u      0.000s      0.017w      1 calls
HF: Form H                  :      0.000u      0.000s      0.001w      1 calls
HF: Form S/X                :      0.000u      0.000s      0.000w      1 calls
HF: Guess                   :      0.000u      0.000s      0.000w      1 calls
HF: Form G                  :      0.000u      0.000s      0.000w      2 calls
JK: D                       :      0.000u      0.000s      0.000w      2 calls
JK: USO2AO                  :      0.000u      0.000s      0.000w      2 calls
JK: JK                      :      0.000u      0.000s      0.000w      2 calls
PK computes JK              :      0.000u      0.000s      0.000w      2 calls
JK: AO2USO                  :      0.000u      0.000s      0.000w      2 calls
HF: Form F                  :      0.000u      0.000s      0.000w      2 calls
HF: DIIS                    :      0.000u      0.000s      0.000w      2 calls
DIISManager::add_entry      :      0.000u      0.000s      0.000w      2 calls
DIISManager::extrapolate    :      0.000u      0.000s      0.000w      1 calls
bMatrix setup               :      0.000u      0.000s      0.000w      1 calls
bMatrix pseudoinverse       :      0.000u      0.000s      0.000w      1 calls
New vector                  :      0.000u      0.000s      0.000w      1 calls
HF: Form C                  :      0.000u      0.000s      0.000w      2 calls
HF: Form D                  :      0.000u      0.000s      0.000w      2 calls

-----------------------------------------------------------
Total PK formation time     :      0.017u      0.000s      0.017w      1 calls
HF: Form H                  :      0.000u      0.000s      0.001w      1 calls
HF: Form S/X                :      0.000u      0.000s      0.000w      1 calls
HF: Guess                   :      0.000u      0.000s      0.000w      1 calls
HF: Form G                  :      0.000u      0.000s      0.000w      2 calls
| JK: D                     :      0.000u      0.000s      0.000w      2 calls
| JK: USO2AO                :      0.000u      0.000s      0.000w      2 calls
| JK: JK                    :      0.000u      0.000s      0.000w      2 calls
| | PK computes JK          :      0.000u      0.000s      0.000w      2 calls
| JK: AO2USO                :      0.000u      0.000s      0.000w      2 calls
HF: Form F                  :      0.000u      0.000s      0.000w      2 calls
HF: DIIS                    :      0.000u      0.000s      0.000w      2 calls
| DIISManager::add_entry    :      0.000u      0.000s      0.000w      2 calls
| DIISManager::extrapolate  :      0.000u      0.000s      0.000w      1 calls
| | bMatrix setup           :      0.000u      0.000s      0.000w      1 calls
| | bMatrix pseudoinverse   :      0.000u      0.000s      0.000w      1 calls
| | New vector              :      0.000u      0.000s      0.000w      1 calls
HF: Form C                  :      0.000u      0.000s      0.000w      2 calls
HF: Form D                  :      0.000u      0.000s      0.000w      2 calls

***********************************************************

Host: hrgrimsl-XPS-13-9370

Timers On : Mon Sep 21 19:21:18 2020
Timers Off: Mon Sep 21 19:21:18 2020

Wall Time:        0.45 seconds

Total PK formation time     :      0.000u      0.000s      0.006w      1 calls
HF: Form H                  :      0.000u      0.000s      0.000w      1 calls
HF: Form S/X                :      0.000u      0.000s      0.000w      1 calls
HF: Guess                   :      0.000u      0.000s      0.000w      1 calls
HF: Form G                  :      0.000u      0.000s      0.000w      2 calls
JK: D                       :      0.000u      0.000s      0.000w      2 calls
JK: USO2AO                  :      0.000u      0.000s      0.000w      2 calls
JK: JK                      :      0.000u      0.000s      0.000w      2 calls
PK computes JK              :      0.000u      0.000s      0.000w      2 calls
JK: AO2USO                  :      0.000u      0.000s      0.000w      2 calls
HF: Form F                  :      0.000u      0.000s      0.000w      2 calls
HF: DIIS                    :      0.000u      0.000s      0.000w      2 calls
DIISManager::add_entry      :      0.000u      0.000s      0.000w      2 calls
DIISManager::extrapolate    :      0.000u      0.000s      0.000w      1 calls
bMatrix setup               :      0.000u      0.000s      0.000w      1 calls
bMatrix pseudoinverse       :      0.000u      0.000s      0.000w      1 calls
New vector                  :      0.000u      0.000s      0.000w      1 calls
HF: Form C                  :      0.000u      0.000s      0.000w      2 calls
HF: Form D                  :      0.000u      0.000s      0.000w      2 calls

-----------------------------------------------------------
Total PK formation time     :      0.000u      0.000s      0.006w      1 calls
HF: Form H                  :      0.000u      0.000s      0.000w      1 calls
HF: Form S/X                :      0.000u      0.000s      0.000w      1 calls
HF: Guess                   :      0.000u      0.000s      0.000w      1 calls
HF: Form G                  :      0.000u      0.000s      0.000w      2 calls
| JK: D                     :      0.000u      0.000s      0.000w      2 calls
| JK: USO2AO                :      0.000u      0.000s      0.000w      2 calls
| JK: JK                    :      0.000u      0.000s      0.000w      2 calls
| | PK computes JK          :      0.000u      0.000s      0.000w      2 calls
| JK: AO2USO                :      0.000u      0.000s      0.000w      2 calls
HF: Form F                  :      0.000u      0.000s      0.000w      2 calls
HF: DIIS                    :      0.000u      0.000s      0.000w      2 calls
| DIISManager::add_entry    :      0.000u      0.000s      0.000w      2 calls
| DIISManager::extrapolate  :      0.000u      0.000s      0.000w      1 calls
| | bMatrix setup           :      0.000u      0.000s      0.000w      1 calls
| | bMatrix pseudoinverse   :      0.000u      0.000s      0.000w      1 calls
| | New vector              :      0.000u      0.000s      0.000w      1 calls
HF: Form C                  :      0.000u      0.000s      0.000w      2 calls
HF: Form D                  :      0.000u      0.000s      0.000w      2 calls

***********************************************************

Host: hrgrimsl-XPS-13-9370

Timers On : Mon Sep 21 19:21:40 2020
Timers Off: Mon Sep 21 19:21:41 2020

Wall Time:        0.47 seconds

Total PK formation time     :      0.033u      0.000s      0.019w      1 calls
HF: Form H                  :      0.000u      0.000s      0.001w      1 calls
HF: Form S/X                :      0.000u      0.000s      0.000w      1 calls
HF: Guess                   :      0.000u      0.000s      0.000w      1 calls
HF: Form G                  :      0.000u      0.000s      0.000w      2 calls
JK: D                       :      0.000u      0.000s      0.000w      2 calls
JK: USO2AO                  :      0.000u      0.000s      0.000w      2 calls
JK: JK                      :      0.000u      0.000s      0.000w      2 calls
PK computes JK              :      0.000u      0.000s      0.000w      2 calls
JK: AO2USO                  :      0.000u      0.000s      0.000w      2 calls
HF: Form F                  :      0.000u      0.000s      0.000w      2 calls
HF: DIIS                    :      0.000u      0.000s      0.000w      2 calls
DIISManager::add_entry      :      0.000u      0.000s      0.000w      2 calls
DIISManager::extrapolate    :      0.000u      0.000s      0.000w      1 calls
bMatrix setup               :      0.000u      0.000s      0.000w      1 calls
bMatrix pseudoinverse       :      0.000u      0.000s      0.000w      1 calls
New vector                  :      0.000u      0.000s      0.000w      1 calls
HF: Form C                  :      0.000u      0.000s      0.000w      2 calls
HF: Form D                  :      0.000u      0.000s      0.000w      2 calls

-----------------------------------------------------------
Total PK formation time     :      0.033u      0.000s      0.019w      1 calls
HF: Form H                  :      0.000u      0.000s      0.001w      1 calls
HF: Form S/X                :      0.000u      0.000s      0.000w      1 calls
HF: Guess                   :      0.000u      0.000s      0.000w      1 calls
HF: Form G                  :      0.000u      0.000s      0.000w      2 calls
| JK: D                     :      0.000u      0.000s      0.000w      2 calls
| JK: USO2AO                :      0.000u      0.000s      0.000w      2 calls
| JK: JK                    :      0.000u      0.000s      0.000w      2 calls
| | PK computes JK          :      0.000u      0.000s      0.000w      2 calls
| JK: AO2USO                :      0.000u      0.000s      0.000w      2 calls
HF: Form F                  :      0.000u      0.000s      0.000w      2 calls
HF: DIIS                    :      0.000u      0.000s      0.000w      2 calls
| DIISManager::add_entry    :      0.000u      0.000s      0.000w      2 calls
| DIISManager::extrapolate  :      0.000u      0.000s      0.000w      1 calls
| | bMatrix setup           :      0.000u      0.000s      0.000w      1 calls
| | bMatrix pseudoinverse   :      0.000u      0.000s      0.000w      1 calls
| | New vector              :      0.000u      0.000s      0.000w      1 calls
HF: Form C                  :      0.000u      0.000s      0.000w      2 calls
HF: Form D                  :      0.000u      0.000s      0.000w      2 calls

***********************************************************

Host: hrgrimsl-XPS-13-9370

Timers On : Mon Sep 21 19:21:55 2020
Timers Off: Mon Sep 21 19:21:56 2020

Wall Time:        0.44 seconds

Total PK formation time     :      0.017u      0.000s      0.006w      1 calls
HF: Form H                  :      0.000u      0.000s      0.000w      1 calls
HF: Form S/X                :      0.000u      0.000s      0.000w      1 calls
HF: Guess                   :      0.000u      0.000s      0.000w      1 calls
HF: Form G                  :      0.000u      0.000s      0.000w      2 calls
JK: D                       :      0.000u      0.000s      0.000w      2 calls
JK: USO2AO                  :      0.000u      0.000s      0.000w      2 calls
JK: JK                      :      0.000u      0.000s      0.000w      2 calls
PK computes JK              :      0.000u      0.000s      0.000w      2 calls
JK: AO2USO                  :      0.000u      0.000s      0.000w      2 calls
HF: Form F                  :      0.000u      0.000s      0.000w      2 calls
HF: DIIS                    :      0.000u      0.000s      0.000w      2 calls
DIISManager::add_entry      :      0.000u      0.000s      0.000w      2 calls
DIISManager::extrapolate    :      0.000u      0.000s      0.000w      1 calls
bMatrix setup               :      0.000u      0.000s      0.000w      1 calls
bMatrix pseudoinverse       :      0.000u      0.000s      0.000w      1 calls
New vector                  :      0.000u      0.000s      0.000w      1 calls
HF: Form C                  :      0.000u      0.000s      0.000w      2 calls
HF: Form D                  :      0.000u      0.000s      0.000w      2 calls

-----------------------------------------------------------
Total PK formation time     :      0.017u      0.000s      0.006w      1 calls
HF: Form H                  :      0.000u      0.000s      0.000w      1 calls
HF: Form S/X                :      0.000u      0.000s      0.000w      1 calls
HF: Guess                   :      0.000u      0.000s      0.000w      1 calls
HF: Form G                  :      0.000u      0.000s      0.000w      2 calls
| JK: D                     :      0.000u      0.000s      0.000w      2 calls
| JK: USO2AO                :      0.000u      0.000s      0.000w      2 calls
| JK: JK                    :      0.000u      0.000s      0.000w      2 calls
| | PK computes JK          :      0.000u      0.000s      0.000w      2 calls
| JK: AO2USO                :      0.000u      0.000s      0.000w      2 calls
HF: Form F                  :      0.000u      0.000s      0.000w      2 calls
HF: DIIS                    :      0.000u      0.000s      0.000w      2 calls
| DIISManager::add_entry    :      0.000u      0.000s      0.000w      2 calls
| DIISManager::extrapolate  :      0.000u      0.000s      0.000w      1 calls
| | bMatrix setup           :      0.000u      0.000s      0.000w      1 calls
| | bMatrix pseudoinverse   :      0.000u      0.000s      0.000w      1 calls
| | New vector              :      0.000u      0.000s      0.000w      1 calls
HF: Form C                  :      0.000u      0.000s      0.000w      2 calls
HF: Form D                  :      0.000u      0.000s      0.000w      2 calls

***********************************************************

Host: hrgrimsl-XPS-13-9370

Timers On : Mon Sep 21 19:24:51 2020
Timers Off: Mon Sep 21 19:24:51 2020

Wall Time:        0.44 seconds

Total PK formation time     :      0.000u      0.000s      0.008w      1 calls
HF: Form H                  :      0.000u      0.000s      0.000w      1 calls
HF: Form S/X                :      0.000u      0.000s      0.000w      1 calls
HF: Guess                   :      0.000u      0.000s      0.000w      1 calls
HF: Form G                  :      0.000u      0.000s      0.000w      2 calls
JK: D                       :      0.000u      0.000s      0.000w      2 calls
JK: USO2AO                  :      0.000u      0.000s      0.000w      2 calls
JK: JK                      :      0.000u      0.000s      0.000w      2 calls
PK computes JK              :      0.000u      0.000s      0.000w      2 calls
JK: AO2USO                  :      0.000u      0.000s      0.000w      2 calls
HF: Form F                  :      0.000u      0.000s      0.000w      2 calls
HF: DIIS                    :      0.000u      0.000s      0.000w      2 calls
DIISManager::add_entry      :      0.000u      0.000s      0.000w      2 calls
DIISManager::extrapolate    :      0.000u      0.000s      0.000w      1 calls
bMatrix setup               :      0.000u      0.000s      0.000w      1 calls
bMatrix pseudoinverse       :      0.000u      0.000s      0.000w      1 calls
New vector                  :      0.000u      0.000s      0.000w      1 calls
HF: Form C                  :      0.000u      0.000s      0.000w      2 calls
HF: Form D                  :      0.000u      0.000s      0.000w      2 calls

-----------------------------------------------------------
Total PK formation time     :      0.000u      0.000s      0.008w      1 calls
HF: Form H                  :      0.000u      0.000s      0.000w      1 calls
HF: Form S/X                :      0.000u      0.000s      0.000w      1 calls
HF: Guess                   :      0.000u      0.000s      0.000w      1 calls
HF: Form G                  :      0.000u      0.000s      0.000w      2 calls
| JK: D                     :      0.000u      0.000s      0.000w      2 calls
| JK: USO2AO                :      0.000u      0.000s      0.000w      2 calls
| JK: JK                    :      0.000u      0.000s      0.000w      2 calls
| | PK computes JK          :      0.000u      0.000s      0.000w      2 calls
| JK: AO2USO                :      0.000u      0.000s      0.000w      2 calls
HF: Form F                  :      0.000u      0.000s      0.000w      2 calls
HF: DIIS                    :      0.000u      0.000s      0.000w      2 calls
| DIISManager::add_entry    :      0.000u      0.000s      0.000w      2 calls
| DIISManager::extrapolate  :      0.000u      0.000s      0.000w      1 calls
| | bMatrix setup           :      0.000u      0.000s      0.000w      1 calls
| | bMatrix pseudoinverse   :      0.000u      0.000s      0.000w      1 calls
| | New vector              :      0.000u      0.000s      0.000w      1 calls
HF: Form C                  :      0.000u      0.000s      0.000w      2 calls
HF: Form D                  :      0.000u      0.000s      0.000w      2 calls

***********************************************************

Host: hrgrimsl-XPS-13-9370

Timers On : Mon Sep 21 19:25:19 2020
Timers Off: Mon Sep 21 19:25:19 2020

Wall Time:        0.47 seconds


-----------------------------------------------------------

***********************************************************

Host: hrgrimsl-XPS-13-9370

Timers On : Mon Sep 21 19:25:28 2020
Timers Off: Mon Sep 21 19:25:28 2020

Wall Time:        0.47 seconds

Total PK formation time     :      0.017u      0.000s      0.006w      1 calls
HF: Form H                  :      0.000u      0.000s      0.000w      1 calls
HF: Form S/X                :      0.000u      0.000s      0.000w      1 calls
HF: Guess                   :      0.000u      0.000s      0.000w      1 calls
HF: Form G                  :      0.000u      0.000s      0.000w      2 calls
JK: D                       :      0.000u      0.000s      0.000w      2 calls
JK: USO2AO                  :      0.000u      0.000s      0.000w      2 calls
JK: JK                      :      0.000u      0.000s      0.000w      2 calls
PK computes JK              :      0.000u      0.000s      0.000w      2 calls
JK: AO2USO                  :      0.000u      0.000s      0.000w      2 calls
HF: Form F                  :      0.000u      0.000s      0.000w      2 calls
HF: DIIS                    :      0.000u      0.000s      0.000w      2 calls
DIISManager::add_entry      :      0.000u      0.000s      0.000w      2 calls
DIISManager::extrapolate    :      0.000u      0.000s      0.000w      1 calls
bMatrix setup               :      0.000u      0.000s      0.000w      1 calls
bMatrix pseudoinverse       :      0.000u      0.000s      0.000w      1 calls
New vector                  :      0.000u      0.000s      0.000w      1 calls
HF: Form C                  :      0.000u      0.000s      0.000w      2 calls
HF: Form D                  :      0.000u      0.000s      0.000w      2 calls

-----------------------------------------------------------
Total PK formation time     :      0.017u      0.000s      0.006w      1 calls
HF: Form H                  :      0.000u      0.000s      0.000w      1 calls
HF: Form S/X                :      0.000u      0.000s      0.000w      1 calls
HF: Guess                   :      0.000u      0.000s      0.000w      1 calls
HF: Form G                  :      0.000u      0.000s      0.000w      2 calls
| JK: D                     :      0.000u      0.000s      0.000w      2 calls
| JK: USO2AO                :      0.000u      0.000s      0.000w      2 calls
| JK: JK                    :      0.000u      0.000s      0.000w      2 calls
| | PK computes JK          :      0.000u      0.000s      0.000w      2 calls
| JK: AO2USO                :      0.000u      0.000s      0.000w      2 calls
HF: Form F                  :      0.000u      0.000s      0.000w      2 calls
HF: DIIS                    :      0.000u      0.000s      0.000w      2 calls
| DIISManager::add_entry    :      0.000u      0.000s      0.000w      2 calls
| DIISManager::extrapolate  :      0.000u      0.000s      0.000w      1 calls
| | bMatrix setup           :      0.000u      0.000s      0.000w      1 calls
| | bMatrix pseudoinverse   :      0.000u      0.000s      0.000w      1 calls
| | New vector              :      0.000u      0.000s      0.000w      1 calls
HF: Form C                  :      0.000u      0.000s      0.000w      2 calls
HF: Form D                  :      0.000u      0.000s      0.000w      2 calls

***********************************************************

Host: hrgrimsl-XPS-13-9370

Timers On : Mon Sep 21 19:26:12 2020
Timers Off: Mon Sep 21 19:26:13 2020

Wall Time:        0.48 seconds

Total PK formation time     :      0.000u      0.000s      0.006w      1 calls
HF: Form H                  :      0.000u      0.000s      0.000w      1 calls
HF: Form S/X                :      0.000u      0.000s      0.000w      1 calls
HF: Guess                   :      0.000u      0.000s      0.000w      1 calls
HF: Form G                  :      0.000u      0.000s      0.000w      6 calls
JK: D                       :      0.000u      0.000s      0.000w      6 calls
JK: USO2AO                  :      0.000u      0.000s      0.000w      6 calls
JK: JK                      :      0.000u      0.000s      0.000w      6 calls
PK computes JK              :      0.000u      0.000s      0.000w      6 calls
JK: AO2USO                  :      0.000u      0.000s      0.000w      6 calls
HF: Form F                  :      0.000u      0.000s      0.000w      6 calls
HF: DIIS                    :      0.000u      0.000s      0.000w      6 calls
DIISManager::add_entry      :      0.000u      0.000s      0.000w      6 calls
DIISManager::extrapolate    :      0.000u      0.000s      0.000w      5 calls
bMatrix setup               :      0.000u      0.000s      0.000w      5 calls
bMatrix pseudoinverse       :      0.000u      0.000s      0.000w      5 calls
New vector                  :      0.000u      0.000s      0.000w      5 calls
HF: Form C                  :      0.000u      0.000s      0.000w      6 calls
HF: Form D                  :      0.000u      0.000s      0.000w      6 calls

-----------------------------------------------------------
Total PK formation time     :      0.000u      0.000s      0.006w      1 calls
HF: Form H                  :      0.000u      0.000s      0.000w      1 calls
HF: Form S/X                :      0.000u      0.000s      0.000w      1 calls
HF: Guess                   :      0.000u      0.000s      0.000w      1 calls
HF: Form G                  :      0.000u      0.000s      0.000w      6 calls
| JK: D                     :      0.000u      0.000s      0.000w      6 calls
| JK: USO2AO                :      0.000u      0.000s      0.000w      6 calls
| JK: JK                    :      0.000u      0.000s      0.000w      6 calls
| | PK computes JK          :      0.000u      0.000s      0.000w      6 calls
| JK: AO2USO                :      0.000u      0.000s      0.000w      6 calls
HF: Form F                  :      0.000u      0.000s      0.000w      6 calls
HF: DIIS                    :      0.000u      0.000s      0.000w      6 calls
| DIISManager::add_entry    :      0.000u      0.000s      0.000w      6 calls
| DIISManager::extrapolate  :      0.000u      0.000s      0.000w      5 calls
| | bMatrix setup           :      0.000u      0.000s      0.000w      5 calls
| | bMatrix pseudoinverse   :      0.000u      0.000s      0.000w      5 calls
| | New vector              :      0.000u      0.000s      0.000w      5 calls
HF: Form C                  :      0.000u      0.000s      0.000w      6 calls
HF: Form D                  :      0.000u      0.000s      0.000w      6 calls

***********************************************************

Host: hrgrimsl-XPS-13-9370

Timers On : Mon Sep 21 19:32:23 2020
Timers Off: Mon Sep 21 19:32:24 2020

Wall Time:        0.47 seconds

Total PK formation time     :      0.000u      0.000s      0.007w      1 calls
HF: Form H                  :      0.000u      0.000s      0.000w      1 calls
HF: Form S/X                :      0.000u      0.000s      0.000w      1 calls
HF: Guess                   :      0.000u      0.000s      0.000w      1 calls
HF: Form G                  :      0.000u      0.000s      0.000w      6 calls
JK: D                       :      0.000u      0.000s      0.000w      6 calls
JK: USO2AO                  :      0.000u      0.000s      0.000w      6 calls
JK: JK                      :      0.000u      0.000s      0.000w      6 calls
PK computes JK              :      0.000u      0.000s      0.000w      6 calls
JK: AO2USO                  :      0.000u      0.000s      0.000w      6 calls
HF: Form F                  :      0.000u      0.000s      0.000w      6 calls
HF: DIIS                    :      0.000u      0.000s      0.000w      6 calls
DIISManager::add_entry      :      0.000u      0.000s      0.000w      6 calls
DIISManager::extrapolate    :      0.000u      0.000s      0.000w      5 calls
bMatrix setup               :      0.000u      0.000s      0.000w      5 calls
bMatrix pseudoinverse       :      0.000u      0.000s      0.000w      5 calls
New vector                  :      0.000u      0.000s      0.000w      5 calls
HF: Form C                  :      0.000u      0.000s      0.000w      6 calls
HF: Form D                  :      0.000u      0.000s      0.000w      6 calls

-----------------------------------------------------------
Total PK formation time     :      0.000u      0.000s      0.007w      1 calls
HF: Form H                  :      0.000u      0.000s      0.000w      1 calls
HF: Form S/X                :      0.000u      0.000s      0.000w      1 calls
HF: Guess                   :      0.000u      0.000s      0.000w      1 calls
HF: Form G                  :      0.000u      0.000s      0.000w      6 calls
| JK: D                     :      0.000u      0.000s      0.000w      6 calls
| JK: USO2AO                :      0.000u      0.000s      0.000w      6 calls
| JK: JK                    :      0.000u      0.000s      0.000w      6 calls
| | PK computes JK          :      0.000u      0.000s      0.000w      6 calls
| JK: AO2USO                :      0.000u      0.000s      0.000w      6 calls
HF: Form F                  :      0.000u      0.000s      0.000w      6 calls
HF: DIIS                    :      0.000u      0.000s      0.000w      6 calls
| DIISManager::add_entry    :      0.000u      0.000s      0.000w      6 calls
| DIISManager::extrapolate  :      0.000u      0.000s      0.000w      5 calls
| | bMatrix setup           :      0.000u      0.000s      0.000w      5 calls
| | bMatrix pseudoinverse   :      0.000u      0.000s      0.000w      5 calls
| | New vector              :      0.000u      0.000s      0.000w      5 calls
HF: Form C                  :      0.000u      0.000s      0.000w      6 calls
HF: Form D                  :      0.000u      0.000s      0.000w      6 calls

***********************************************************

Host: hrgrimsl-XPS-13-9370

Timers On : Mon Sep 21 19:34:18 2020
Timers Off: Mon Sep 21 19:34:18 2020

Wall Time:        0.44 seconds

Total PK formation time     :      0.000u      0.000s      0.007w      1 calls
HF: Form H                  :      0.000u      0.000s      0.000w      1 calls
HF: Form S/X                :      0.000u      0.000s      0.000w      1 calls
HF: Guess                   :      0.000u      0.000s      0.000w      1 calls
HF: Form G                  :      0.000u      0.000s      0.000w      6 calls
JK: D                       :      0.000u      0.000s      0.000w      6 calls
JK: USO2AO                  :      0.000u      0.000s      0.000w      6 calls
JK: JK                      :      0.000u      0.000s      0.000w      6 calls
PK computes JK              :      0.000u      0.000s      0.000w      6 calls
JK: AO2USO                  :      0.000u      0.000s      0.000w      6 calls
HF: Form F                  :      0.000u      0.000s      0.000w      6 calls
HF: DIIS                    :      0.000u      0.000s      0.001w      6 calls
DIISManager::add_entry      :      0.000u      0.000s      0.000w      6 calls
DIISManager::extrapolate    :      0.000u      0.000s      0.000w      5 calls
bMatrix setup               :      0.000u      0.000s      0.000w      5 calls
bMatrix pseudoinverse       :      0.000u      0.000s      0.000w      5 calls
New vector                  :      0.000u      0.000s      0.000w      5 calls
HF: Form C                  :      0.000u      0.000s      0.000w      6 calls
HF: Form D                  :      0.000u      0.000s      0.000w      6 calls

-----------------------------------------------------------
Total PK formation time     :      0.000u      0.000s      0.007w      1 calls
HF: Form H                  :      0.000u      0.000s      0.000w      1 calls
HF: Form S/X                :      0.000u      0.000s      0.000w      1 calls
HF: Guess                   :      0.000u      0.000s      0.000w      1 calls
HF: Form G                  :      0.000u      0.000s      0.000w      6 calls
| JK: D                     :      0.000u      0.000s      0.000w      6 calls
| JK: USO2AO                :      0.000u      0.000s      0.000w      6 calls
| JK: JK                    :      0.000u      0.000s      0.000w      6 calls
| | PK computes JK          :      0.000u      0.000s      0.000w      6 calls
| JK: AO2USO                :      0.000u      0.000s      0.000w      6 calls
HF: Form F                  :      0.000u      0.000s      0.000w      6 calls
HF: DIIS                    :      0.000u      0.000s      0.001w      6 calls
| DIISManager::add_entry    :      0.000u      0.000s      0.000w      6 calls
| DIISManager::extrapolate  :      0.000u      0.000s      0.000w      5 calls
| | bMatrix setup           :      0.000u      0.000s      0.000w      5 calls
| | bMatrix pseudoinverse   :      0.000u      0.000s      0.000w      5 calls
| | New vector              :      0.000u      0.000s      0.000w      5 calls
HF: Form C                  :      0.000u      0.000s      0.000w      6 calls
HF: Form D                  :      0.000u      0.000s      0.000w      6 calls

***********************************************************

Host: hrgrimsl-XPS-13-9370

Timers On : Mon Sep 21 19:34:28 2020
Timers Off: Mon Sep 21 19:34:29 2020

Wall Time:        0.46 seconds

Total PK formation time     :      0.033u      0.000s      0.018w      1 calls
HF: Form H                  :      0.000u      0.000s      0.001w      1 calls
HF: Form S/X                :      0.000u      0.000s      0.000w      1 calls
HF: Guess                   :      0.000u      0.000s      0.000w      1 calls
HF: Form G                  :      0.000u      0.000s      0.000w      6 calls
JK: D                       :      0.000u      0.000s      0.000w      6 calls
JK: USO2AO                  :      0.000u      0.000s      0.000w      6 calls
JK: JK                      :      0.000u      0.000s      0.000w      6 calls
PK computes JK              :      0.000u      0.000s      0.000w      6 calls
JK: AO2USO                  :      0.000u      0.000s      0.000w      6 calls
HF: Form F                  :      0.000u      0.000s      0.000w      6 calls
HF: DIIS                    :      0.000u      0.000s      0.001w      6 calls
DIISManager::add_entry      :      0.000u      0.000s      0.000w      6 calls
DIISManager::extrapolate    :      0.000u      0.000s      0.000w      5 calls
bMatrix setup               :      0.000u      0.000s      0.000w      5 calls
bMatrix pseudoinverse       :      0.000u      0.000s      0.000w      5 calls
New vector                  :      0.000u      0.000s      0.000w      5 calls
HF: Form C                  :      0.000u      0.000s      0.000w      6 calls
HF: Form D                  :      0.000u      0.000s      0.000w      6 calls

-----------------------------------------------------------
Total PK formation time     :      0.033u      0.000s      0.018w      1 calls
HF: Form H                  :      0.000u      0.000s      0.001w      1 calls
HF: Form S/X                :      0.000u      0.000s      0.000w      1 calls
HF: Guess                   :      0.000u      0.000s      0.000w      1 calls
HF: Form G                  :      0.000u      0.000s      0.000w      6 calls
| JK: D                     :      0.000u      0.000s      0.000w      6 calls
| JK: USO2AO                :      0.000u      0.000s      0.000w      6 calls
| JK: JK                    :      0.000u      0.000s      0.000w      6 calls
| | PK computes JK          :      0.000u      0.000s      0.000w      6 calls
| JK: AO2USO                :      0.000u      0.000s      0.000w      6 calls
HF: Form F                  :      0.000u      0.000s      0.000w      6 calls
HF: DIIS                    :      0.000u      0.000s      0.001w      6 calls
| DIISManager::add_entry    :      0.000u      0.000s      0.000w      6 calls
| DIISManager::extrapolate  :      0.000u      0.000s      0.000w      5 calls
| | bMatrix setup           :      0.000u      0.000s      0.000w      5 calls
| | bMatrix pseudoinverse   :      0.000u      0.000s      0.000w      5 calls
| | New vector              :      0.000u      0.000s      0.000w      5 calls
HF: Form C                  :      0.000u      0.000s      0.000w      6 calls
HF: Form D                  :      0.000u      0.000s      0.000w      6 calls

***********************************************************

Host: hrgrimsl-XPS-13-9370

Timers On : Mon Sep 21 19:36:57 2020
Timers Off: Mon Sep 21 19:36:57 2020

Wall Time:        0.45 seconds

Total PK formation time     :      0.000u      0.000s      0.006w      1 calls
HF: Form H                  :      0.000u      0.000s      0.000w      1 calls
HF: Form S/X                :      0.000u      0.000s      0.000w      1 calls
HF: Guess                   :      0.000u      0.000s      0.000w      1 calls
HF: Form G                  :      0.000u      0.000s      0.000w      6 calls
JK: D                       :      0.000u      0.000s      0.000w      6 calls
JK: USO2AO                  :      0.000u      0.000s      0.000w      6 calls
JK: JK                      :      0.000u      0.000s      0.000w      6 calls
PK computes JK              :      0.000u      0.000s      0.000w      6 calls
JK: AO2USO                  :      0.000u      0.000s      0.000w      6 calls
HF: Form F                  :      0.000u      0.000s      0.000w      6 calls
HF: DIIS                    :      0.000u      0.000s      0.000w      6 calls
DIISManager::add_entry      :      0.000u      0.000s      0.000w      6 calls
DIISManager::extrapolate    :      0.000u      0.000s      0.000w      5 calls
bMatrix setup               :      0.000u      0.000s      0.000w      5 calls
bMatrix pseudoinverse       :      0.000u      0.000s      0.000w      5 calls
New vector                  :      0.000u      0.000s      0.000w      5 calls
HF: Form C                  :      0.000u      0.000s      0.000w      6 calls
HF: Form D                  :      0.000u      0.000s      0.000w      6 calls

-----------------------------------------------------------
Total PK formation time     :      0.000u      0.000s      0.006w      1 calls
HF: Form H                  :      0.000u      0.000s      0.000w      1 calls
HF: Form S/X                :      0.000u      0.000s      0.000w      1 calls
HF: Guess                   :      0.000u      0.000s      0.000w      1 calls
HF: Form G                  :      0.000u      0.000s      0.000w      6 calls
| JK: D                     :      0.000u      0.000s      0.000w      6 calls
| JK: USO2AO                :      0.000u      0.000s      0.000w      6 calls
| JK: JK                    :      0.000u      0.000s      0.000w      6 calls
| | PK computes JK          :      0.000u      0.000s      0.000w      6 calls
| JK: AO2USO                :      0.000u      0.000s      0.000w      6 calls
HF: Form F                  :      0.000u      0.000s      0.000w      6 calls
HF: DIIS                    :      0.000u      0.000s      0.000w      6 calls
| DIISManager::add_entry    :      0.000u      0.000s      0.000w      6 calls
| DIISManager::extrapolate  :      0.000u      0.000s      0.000w      5 calls
| | bMatrix setup           :      0.000u      0.000s      0.000w      5 calls
| | bMatrix pseudoinverse   :      0.000u      0.000s      0.000w      5 calls
| | New vector              :      0.000u      0.000s      0.000w      5 calls
HF: Form C                  :      0.000u      0.000s      0.000w      6 calls
HF: Form D                  :      0.000u      0.000s      0.000w      6 calls

***********************************************************

Host: hrgrimsl-XPS-13-9370

Timers On : Mon Sep 21 20:31:03 2020
Timers Off: Mon Sep 21 20:31:04 2020

Wall Time:        0.45 seconds

Total PK formation time     :      0.017u      0.017s      0.006w      1 calls
HF: Form H                  :      0.000u      0.000s      0.000w      1 calls
HF: Form S/X                :      0.000u      0.000s      0.000w      1 calls
HF: Guess                   :      0.000u      0.000s      0.000w      1 calls
HF: Form G                  :      0.000u      0.000s      0.000w      6 calls
JK: D                       :      0.000u      0.000s      0.000w      6 calls
JK: USO2AO                  :      0.000u      0.000s      0.000w      6 calls
JK: JK                      :      0.000u      0.000s      0.000w      6 calls
PK computes JK              :      0.000u      0.000s      0.000w      6 calls
JK: AO2USO                  :      0.000u      0.000s      0.000w      6 calls
HF: Form F                  :      0.000u      0.000s      0.000w      6 calls
HF: DIIS                    :      0.000u      0.000s      0.000w      6 calls
DIISManager::add_entry      :      0.000u      0.000s      0.000w      6 calls
DIISManager::extrapolate    :      0.000u      0.000s      0.000w      5 calls
bMatrix setup               :      0.000u      0.000s      0.000w      5 calls
bMatrix pseudoinverse       :      0.000u      0.000s      0.000w      5 calls
New vector                  :      0.000u      0.000s      0.000w      5 calls
HF: Form C                  :      0.000u      0.000s      0.000w      6 calls
HF: Form D                  :      0.000u      0.000s      0.000w      6 calls

-----------------------------------------------------------
Total PK formation time     :      0.017u      0.017s      0.006w      1 calls
HF: Form H                  :      0.000u      0.000s      0.000w      1 calls
HF: Form S/X                :      0.000u      0.000s      0.000w      1 calls
HF: Guess                   :      0.000u      0.000s      0.000w      1 calls
HF: Form G                  :      0.000u      0.000s      0.000w      6 calls
| JK: D                     :      0.000u      0.000s      0.000w      6 calls
| JK: USO2AO                :      0.000u      0.000s      0.000w      6 calls
| JK: JK                    :      0.000u      0.000s      0.000w      6 calls
| | PK computes JK          :      0.000u      0.000s      0.000w      6 calls
| JK: AO2USO                :      0.000u      0.000s      0.000w      6 calls
HF: Form F                  :      0.000u      0.000s      0.000w      6 calls
HF: DIIS                    :      0.000u      0.000s      0.000w      6 calls
| DIISManager::add_entry    :      0.000u      0.000s      0.000w      6 calls
| DIISManager::extrapolate  :      0.000u      0.000s      0.000w      5 calls
| | bMatrix setup           :      0.000u      0.000s      0.000w      5 calls
| | bMatrix pseudoinverse   :      0.000u      0.000s      0.000w      5 calls
| | New vector              :      0.000u      0.000s      0.000w      5 calls
HF: Form C                  :      0.000u      0.000s      0.000w      6 calls
HF: Form D                  :      0.000u      0.000s      0.000w      6 calls

***********************************************************

Host: hrgrimsl-XPS-13-9370

Timers On : Mon Sep 21 20:37:16 2020
Timers Off: Mon Sep 21 20:37:16 2020

Wall Time:        0.47 seconds

Total PK formation time     :      0.033u      0.000s      0.017w      1 calls
HF: Form H                  :      0.000u      0.000s      0.001w      1 calls
HF: Form S/X                :      0.000u      0.000s      0.000w      1 calls
HF: Guess                   :      0.000u      0.000s      0.000w      1 calls
HF: Form G                  :      0.000u      0.000s      0.000w      6 calls
JK: D                       :      0.000u      0.000s      0.000w      6 calls
JK: USO2AO                  :      0.000u      0.000s      0.000w      6 calls
JK: JK                      :      0.000u      0.000s      0.000w      6 calls
PK computes JK              :      0.000u      0.000s      0.000w      6 calls
JK: AO2USO                  :      0.000u      0.000s      0.000w      6 calls
HF: Form F                  :      0.000u      0.000s      0.000w      6 calls
HF: DIIS                    :      0.000u      0.000s      0.001w      6 calls
DIISManager::add_entry      :      0.000u      0.000s      0.000w      6 calls
DIISManager::extrapolate    :      0.000u      0.000s      0.000w      5 calls
bMatrix setup               :      0.000u      0.000s      0.000w      5 calls
bMatrix pseudoinverse       :      0.000u      0.000s      0.000w      5 calls
New vector                  :      0.000u      0.000s      0.000w      5 calls
HF: Form C                  :      0.000u      0.000s      0.000w      6 calls
HF: Form D                  :      0.000u      0.000s      0.000w      6 calls

-----------------------------------------------------------
Total PK formation time     :      0.033u      0.000s      0.017w      1 calls
HF: Form H                  :      0.000u      0.000s      0.001w      1 calls
HF: Form S/X                :      0.000u      0.000s      0.000w      1 calls
HF: Guess                   :      0.000u      0.000s      0.000w      1 calls
HF: Form G                  :      0.000u      0.000s      0.000w      6 calls
| JK: D                     :      0.000u      0.000s      0.000w      6 calls
| JK: USO2AO                :      0.000u      0.000s      0.000w      6 calls
| JK: JK                    :      0.000u      0.000s      0.000w      6 calls
| | PK computes JK          :      0.000u      0.000s      0.000w      6 calls
| JK: AO2USO                :      0.000u      0.000s      0.000w      6 calls
HF: Form F                  :      0.000u      0.000s      0.000w      6 calls
HF: DIIS                    :      0.000u      0.000s      0.001w      6 calls
| DIISManager::add_entry    :      0.000u      0.000s      0.000w      6 calls
| DIISManager::extrapolate  :      0.000u      0.000s      0.000w      5 calls
| | bMatrix setup           :      0.000u      0.000s      0.000w      5 calls
| | bMatrix pseudoinverse   :      0.000u      0.000s      0.000w      5 calls
| | New vector              :      0.000u      0.000s      0.000w      5 calls
HF: Form C                  :      0.000u      0.000s      0.000w      6 calls
HF: Form D                  :      0.000u      0.000s      0.000w      6 calls

***********************************************************

Host: hrgrimsl-XPS-13-9370

Timers On : Mon Sep 21 20:37:49 2020
Timers Off: Mon Sep 21 20:37:50 2020

Wall Time:        0.45 seconds

Total PK formation time     :      0.000u      0.000s      0.006w      1 calls
HF: Form H                  :      0.000u      0.000s      0.000w      1 calls
HF: Form S/X                :      0.000u      0.000s      0.000w      1 calls
HF: Guess                   :      0.000u      0.000s      0.000w      1 calls
HF: Form G                  :      0.000u      0.000s      0.000w      6 calls
JK: D                       :      0.000u      0.000s      0.000w      6 calls
JK: USO2AO                  :      0.000u      0.000s      0.000w      6 calls
JK: JK                      :      0.000u      0.000s      0.000w      6 calls
PK computes JK              :      0.000u      0.000s      0.000w      6 calls
JK: AO2USO                  :      0.000u      0.000s      0.000w      6 calls
HF: Form F                  :      0.000u      0.000s      0.000w      6 calls
HF: DIIS                    :      0.000u      0.000s      0.000w      6 calls
DIISManager::add_entry      :      0.000u      0.000s      0.000w      6 calls
DIISManager::extrapolate    :      0.000u      0.000s      0.000w      5 calls
bMatrix setup               :      0.000u      0.000s      0.000w      5 calls
bMatrix pseudoinverse       :      0.000u      0.000s      0.000w      5 calls
New vector                  :      0.000u      0.000s      0.000w      5 calls
HF: Form C                  :      0.000u      0.000s      0.000w      6 calls
HF: Form D                  :      0.000u      0.000s      0.000w      6 calls

-----------------------------------------------------------
Total PK formation time     :      0.000u      0.000s      0.006w      1 calls
HF: Form H                  :      0.000u      0.000s      0.000w      1 calls
HF: Form S/X                :      0.000u      0.000s      0.000w      1 calls
HF: Guess                   :      0.000u      0.000s      0.000w      1 calls
HF: Form G                  :      0.000u      0.000s      0.000w      6 calls
| JK: D                     :      0.000u      0.000s      0.000w      6 calls
| JK: USO2AO                :      0.000u      0.000s      0.000w      6 calls
| JK: JK                    :      0.000u      0.000s      0.000w      6 calls
| | PK computes JK          :      0.000u      0.000s      0.000w      6 calls
| JK: AO2USO                :      0.000u      0.000s      0.000w      6 calls
HF: Form F                  :      0.000u      0.000s      0.000w      6 calls
HF: DIIS                    :      0.000u      0.000s      0.000w      6 calls
| DIISManager::add_entry    :      0.000u      0.000s      0.000w      6 calls
| DIISManager::extrapolate  :      0.000u      0.000s      0.000w      5 calls
| | bMatrix setup           :      0.000u      0.000s      0.000w      5 calls
| | bMatrix pseudoinverse   :      0.000u      0.000s      0.000w      5 calls
| | New vector              :      0.000u      0.000s      0.000w      5 calls
HF: Form C                  :      0.000u      0.000s      0.000w      6 calls
HF: Form D                  :      0.000u      0.000s      0.000w      6 calls

***********************************************************

Host: hrgrimsl-XPS-13-9370

Timers On : Mon Sep 21 20:38:16 2020
Timers Off: Mon Sep 21 20:38:17 2020

Wall Time:        0.45 seconds

Total PK formation time     :      0.017u      0.000s      0.007w      1 calls
HF: Form H                  :      0.000u      0.000s      0.000w      1 calls
HF: Form S/X                :      0.000u      0.000s      0.000w      1 calls
HF: Guess                   :      0.000u      0.000s      0.000w      1 calls
HF: Form G                  :      0.000u      0.000s      0.000w      6 calls
JK: D                       :      0.000u      0.000s      0.000w      6 calls
JK: USO2AO                  :      0.000u      0.000s      0.000w      6 calls
JK: JK                      :      0.000u      0.000s      0.000w      6 calls
PK computes JK              :      0.000u      0.000s      0.000w      6 calls
JK: AO2USO                  :      0.000u      0.000s      0.000w      6 calls
HF: Form F                  :      0.000u      0.000s      0.000w      6 calls
HF: DIIS                    :      0.000u      0.000s      0.000w      6 calls
DIISManager::add_entry      :      0.000u      0.000s      0.000w      6 calls
DIISManager::extrapolate    :      0.000u      0.000s      0.000w      5 calls
bMatrix setup               :      0.000u      0.000s      0.000w      5 calls
bMatrix pseudoinverse       :      0.000u      0.000s      0.000w      5 calls
New vector                  :      0.000u      0.000s      0.000w      5 calls
HF: Form C                  :      0.000u      0.000s      0.000w      6 calls
HF: Form D                  :      0.000u      0.000s      0.000w      6 calls

-----------------------------------------------------------
Total PK formation time     :      0.017u      0.000s      0.007w      1 calls
HF: Form H                  :      0.000u      0.000s      0.000w      1 calls
HF: Form S/X                :      0.000u      0.000s      0.000w      1 calls
HF: Guess                   :      0.000u      0.000s      0.000w      1 calls
HF: Form G                  :      0.000u      0.000s      0.000w      6 calls
| JK: D                     :      0.000u      0.000s      0.000w      6 calls
| JK: USO2AO                :      0.000u      0.000s      0.000w      6 calls
| JK: JK                    :      0.000u      0.000s      0.000w      6 calls
| | PK computes JK          :      0.000u      0.000s      0.000w      6 calls
| JK: AO2USO                :      0.000u      0.000s      0.000w      6 calls
HF: Form F                  :      0.000u      0.000s      0.000w      6 calls
HF: DIIS                    :      0.000u      0.000s      0.000w      6 calls
| DIISManager::add_entry    :      0.000u      0.000s      0.000w      6 calls
| DIISManager::extrapolate  :      0.000u      0.000s      0.000w      5 calls
| | bMatrix setup           :      0.000u      0.000s      0.000w      5 calls
| | bMatrix pseudoinverse   :      0.000u      0.000s      0.000w      5 calls
| | New vector              :      0.000u      0.000s      0.000w      5 calls
HF: Form C                  :      0.000u      0.000s      0.000w      6 calls
HF: Form D                  :      0.000u      0.000s      0.000w      6 calls

***********************************************************

Host: hrgrimsl-XPS-13-9370

Timers On : Mon Sep 21 20:38:57 2020
Timers Off: Mon Sep 21 20:38:57 2020

Wall Time:        0.51 seconds

Total PK formation time     :      0.033u      0.000s      0.023w      1 calls
HF: Form H                  :      0.000u      0.000s      0.001w      1 calls
HF: Form S/X                :      0.000u      0.000s      0.000w      1 calls
HF: Guess                   :      0.000u      0.000s      0.000w      1 calls
HF: Form G                  :      0.000u      0.000s      0.000w      6 calls
JK: D                       :      0.000u      0.000s      0.000w      6 calls
JK: USO2AO                  :      0.000u      0.000s      0.000w      6 calls
JK: JK                      :      0.000u      0.000s      0.000w      6 calls
PK computes JK              :      0.000u      0.000s      0.000w      6 calls
JK: AO2USO                  :      0.000u      0.000s      0.000w      6 calls
HF: Form F                  :      0.000u      0.000s      0.000w      6 calls
HF: DIIS                    :      0.000u      0.000s      0.001w      6 calls
DIISManager::add_entry      :      0.000u      0.000s      0.000w      6 calls
DIISManager::extrapolate    :      0.000u      0.000s      0.000w      5 calls
bMatrix setup               :      0.000u      0.000s      0.000w      5 calls
bMatrix pseudoinverse       :      0.000u      0.000s      0.000w      5 calls
New vector                  :      0.000u      0.000s      0.000w      5 calls
HF: Form C                  :      0.000u      0.000s      0.000w      6 calls
HF: Form D                  :      0.000u      0.000s      0.000w      6 calls

-----------------------------------------------------------
Total PK formation time     :      0.033u      0.000s      0.023w      1 calls
HF: Form H                  :      0.000u      0.000s      0.001w      1 calls
HF: Form S/X                :      0.000u      0.000s      0.000w      1 calls
HF: Guess                   :      0.000u      0.000s      0.000w      1 calls
HF: Form G                  :      0.000u      0.000s      0.000w      6 calls
| JK: D                     :      0.000u      0.000s      0.000w      6 calls
| JK: USO2AO                :      0.000u      0.000s      0.000w      6 calls
| JK: JK                    :      0.000u      0.000s      0.000w      6 calls
| | PK computes JK          :      0.000u      0.000s      0.000w      6 calls
| JK: AO2USO                :      0.000u      0.000s      0.000w      6 calls
HF: Form F                  :      0.000u      0.000s      0.000w      6 calls
HF: DIIS                    :      0.000u      0.000s      0.001w      6 calls
| DIISManager::add_entry    :      0.000u      0.000s      0.000w      6 calls
| DIISManager::extrapolate  :      0.000u      0.000s      0.000w      5 calls
| | bMatrix setup           :      0.000u      0.000s      0.000w      5 calls
| | bMatrix pseudoinverse   :      0.000u      0.000s      0.000w      5 calls
| | New vector              :      0.000u      0.000s      0.000w      5 calls
HF: Form C                  :      0.000u      0.000s      0.000w      6 calls
HF: Form D                  :      0.000u      0.000s      0.000w      6 calls

***********************************************************

Host: hrgrimsl-XPS-13-9370

Timers On : Mon Sep 21 20:39:21 2020
Timers Off: Mon Sep 21 20:39:21 2020

Wall Time:        0.44 seconds

Total PK formation time     :      0.017u      0.000s      0.006w      1 calls
HF: Form H                  :      0.000u      0.000s      0.000w      1 calls
HF: Form S/X                :      0.000u      0.000s      0.000w      1 calls
HF: Guess                   :      0.000u      0.000s      0.000w      1 calls
HF: Form G                  :      0.000u      0.000s      0.000w      6 calls
JK: D                       :      0.000u      0.000s      0.000w      6 calls
JK: USO2AO                  :      0.000u      0.000s      0.000w      6 calls
JK: JK                      :      0.000u      0.000s      0.000w      6 calls
PK computes JK              :      0.000u      0.000s      0.000w      6 calls
JK: AO2USO                  :      0.000u      0.000s      0.000w      6 calls
HF: Form F                  :      0.000u      0.000s      0.000w      6 calls
HF: DIIS                    :      0.000u      0.000s      0.000w      6 calls
DIISManager::add_entry      :      0.000u      0.000s      0.000w      6 calls
DIISManager::extrapolate    :      0.000u      0.000s      0.000w      5 calls
bMatrix setup               :      0.000u      0.000s      0.000w      5 calls
bMatrix pseudoinverse       :      0.000u      0.000s      0.000w      5 calls
New vector                  :      0.000u      0.000s      0.000w      5 calls
HF: Form C                  :      0.000u      0.000s      0.000w      6 calls
HF: Form D                  :      0.000u      0.000s      0.000w      6 calls

-----------------------------------------------------------
Total PK formation time     :      0.017u      0.000s      0.006w      1 calls
HF: Form H                  :      0.000u      0.000s      0.000w      1 calls
HF: Form S/X                :      0.000u      0.000s      0.000w      1 calls
HF: Guess                   :      0.000u      0.000s      0.000w      1 calls
HF: Form G                  :      0.000u      0.000s      0.000w      6 calls
| JK: D                     :      0.000u      0.000s      0.000w      6 calls
| JK: USO2AO                :      0.000u      0.000s      0.000w      6 calls
| JK: JK                    :      0.000u      0.000s      0.000w      6 calls
| | PK computes JK          :      0.000u      0.000s      0.000w      6 calls
| JK: AO2USO                :      0.000u      0.000s      0.000w      6 calls
HF: Form F                  :      0.000u      0.000s      0.000w      6 calls
HF: DIIS                    :      0.000u      0.000s      0.000w      6 calls
| DIISManager::add_entry    :      0.000u      0.000s      0.000w      6 calls
| DIISManager::extrapolate  :      0.000u      0.000s      0.000w      5 calls
| | bMatrix setup           :      0.000u      0.000s      0.000w      5 calls
| | bMatrix pseudoinverse   :      0.000u      0.000s      0.000w      5 calls
| | New vector              :      0.000u      0.000s      0.000w      5 calls
HF: Form C                  :      0.000u      0.000s      0.000w      6 calls
HF: Form D                  :      0.000u      0.000s      0.000w      6 calls

***********************************************************

Host: hrgrimsl-XPS-13-9370

Timers On : Mon Sep 21 20:41:42 2020
Timers Off: Mon Sep 21 20:41:42 2020

Wall Time:        0.47 seconds

Total PK formation time     :      0.033u      0.000s      0.021w      1 calls
HF: Form H                  :      0.000u      0.017s      0.001w      1 calls
HF: Form S/X                :      0.000u      0.000s      0.000w      1 calls
HF: Guess                   :      0.000u      0.000s      0.000w      1 calls
HF: Form G                  :      0.000u      0.000s      0.000w      2 calls
JK: D                       :      0.000u      0.000s      0.000w      2 calls
JK: USO2AO                  :      0.000u      0.000s      0.000w      2 calls
JK: JK                      :      0.000u      0.000s      0.000w      2 calls
PK computes JK              :      0.000u      0.000s      0.000w      2 calls
JK: AO2USO                  :      0.000u      0.000s      0.000w      2 calls
HF: Form F                  :      0.000u      0.000s      0.000w      2 calls
HF: DIIS                    :      0.000u      0.000s      0.000w      2 calls
DIISManager::add_entry      :      0.000u      0.000s      0.000w      2 calls
DIISManager::extrapolate    :      0.000u      0.000s      0.000w      1 calls
bMatrix setup               :      0.000u      0.000s      0.000w      1 calls
bMatrix pseudoinverse       :      0.000u      0.000s      0.000w      1 calls
New vector                  :      0.000u      0.000s      0.000w      1 calls
HF: Form C                  :      0.000u      0.000s      0.000w      2 calls
HF: Form D                  :      0.000u      0.000s      0.000w      2 calls

-----------------------------------------------------------
Total PK formation time     :      0.033u      0.000s      0.021w      1 calls
HF: Form H                  :      0.000u      0.017s      0.001w      1 calls
HF: Form S/X                :      0.000u      0.000s      0.000w      1 calls
HF: Guess                   :      0.000u      0.000s      0.000w      1 calls
HF: Form G                  :      0.000u      0.000s      0.000w      2 calls
| JK: D                     :      0.000u      0.000s      0.000w      2 calls
| JK: USO2AO                :      0.000u      0.000s      0.000w      2 calls
| JK: JK                    :      0.000u      0.000s      0.000w      2 calls
| | PK computes JK          :      0.000u      0.000s      0.000w      2 calls
| JK: AO2USO                :      0.000u      0.000s      0.000w      2 calls
HF: Form F                  :      0.000u      0.000s      0.000w      2 calls
HF: DIIS                    :      0.000u      0.000s      0.000w      2 calls
| DIISManager::add_entry    :      0.000u      0.000s      0.000w      2 calls
| DIISManager::extrapolate  :      0.000u      0.000s      0.000w      1 calls
| | bMatrix setup           :      0.000u      0.000s      0.000w      1 calls
| | bMatrix pseudoinverse   :      0.000u      0.000s      0.000w      1 calls
| | New vector              :      0.000u      0.000s      0.000w      1 calls
HF: Form C                  :      0.000u      0.000s      0.000w      2 calls
HF: Form D                  :      0.000u      0.000s      0.000w      2 calls

***********************************************************

Host: hrgrimsl-XPS-13-9370

Timers On : Mon Sep 21 20:42:04 2020
Timers Off: Mon Sep 21 20:42:04 2020

Wall Time:        0.36 seconds


-----------------------------------------------------------

***********************************************************

Host: hrgrimsl-XPS-13-9370

Timers On : Mon Sep 21 20:42:12 2020
Timers Off: Mon Sep 21 20:42:13 2020

Wall Time:        0.48 seconds

Total PK formation time     :      0.033u      0.000s      0.020w      1 calls
HF: Form H                  :      0.000u      0.000s      0.001w      1 calls
HF: Form S/X                :      0.000u      0.000s      0.000w      1 calls
HF: Guess                   :      0.000u      0.000s      0.000w      1 calls
HF: Form G                  :      0.000u      0.000s      0.000w      6 calls
JK: D                       :      0.000u      0.000s      0.000w      6 calls
JK: USO2AO                  :      0.000u      0.000s      0.000w      6 calls
JK: JK                      :      0.000u      0.000s      0.000w      6 calls
PK computes JK              :      0.000u      0.000s      0.000w      6 calls
JK: AO2USO                  :      0.000u      0.000s      0.000w      6 calls
HF: Form F                  :      0.000u      0.000s      0.000w      6 calls
HF: DIIS                    :      0.000u      0.000s      0.001w      6 calls
DIISManager::add_entry      :      0.000u      0.000s      0.000w      6 calls
DIISManager::extrapolate    :      0.000u      0.000s      0.000w      5 calls
bMatrix setup               :      0.000u      0.000s      0.000w      5 calls
bMatrix pseudoinverse       :      0.000u      0.000s      0.000w      5 calls
New vector                  :      0.000u      0.000s      0.000w      5 calls
HF: Form C                  :      0.000u      0.000s      0.000w      6 calls
HF: Form D                  :      0.000u      0.000s      0.000w      6 calls

-----------------------------------------------------------
Total PK formation time     :      0.033u      0.000s      0.020w      1 calls
HF: Form H                  :      0.000u      0.000s      0.001w      1 calls
HF: Form S/X                :      0.000u      0.000s      0.000w      1 calls
HF: Guess                   :      0.000u      0.000s      0.000w      1 calls
HF: Form G                  :      0.000u      0.000s      0.000w      6 calls
| JK: D                     :      0.000u      0.000s      0.000w      6 calls
| JK: USO2AO                :      0.000u      0.000s      0.000w      6 calls
| JK: JK                    :      0.000u      0.000s      0.000w      6 calls
| | PK computes JK          :      0.000u      0.000s      0.000w      6 calls
| JK: AO2USO                :      0.000u      0.000s      0.000w      6 calls
HF: Form F                  :      0.000u      0.000s      0.000w      6 calls
HF: DIIS                    :      0.000u      0.000s      0.001w      6 calls
| DIISManager::add_entry    :      0.000u      0.000s      0.000w      6 calls
| DIISManager::extrapolate  :      0.000u      0.000s      0.000w      5 calls
| | bMatrix setup           :      0.000u      0.000s      0.000w      5 calls
| | bMatrix pseudoinverse   :      0.000u      0.000s      0.000w      5 calls
| | New vector              :      0.000u      0.000s      0.000w      5 calls
HF: Form C                  :      0.000u      0.000s      0.000w      6 calls
HF: Form D                  :      0.000u      0.000s      0.000w      6 calls

***********************************************************

Host: hrgrimsl-XPS-13-9370

Timers On : Mon Sep 21 20:43:39 2020
Timers Off: Mon Sep 21 20:43:40 2020

Wall Time:        0.79 seconds

Total PK formation time     :      0.017u      0.000s      0.010w      1 calls
HF: Form H                  :      0.000u      0.000s      0.001w      1 calls
HF: Form S/X                :      0.000u      0.000s      0.000w      1 calls
HF: Guess                   :      0.000u      0.000s      0.000w      1 calls
HF: Form G                  :      0.017u      0.000s      0.000w      6 calls
JK: D                       :      0.000u      0.000s      0.000w      6 calls
JK: USO2AO                  :      0.000u      0.000s      0.000w      6 calls
JK: JK                      :      0.000u      0.000s      0.000w      6 calls
PK computes JK              :      0.000u      0.000s      0.000w      6 calls
JK: AO2USO                  :      0.017u      0.000s      0.000w      6 calls
HF: Form F                  :      0.000u      0.000s      0.000w      6 calls
HF: DIIS                    :      0.000u      0.000s      0.001w      6 calls
DIISManager::add_entry      :      0.000u      0.000s      0.000w      6 calls
DIISManager::extrapolate    :      0.000u      0.000s      0.000w      5 calls
bMatrix setup               :      0.000u      0.000s      0.000w      5 calls
bMatrix pseudoinverse       :      0.000u      0.000s      0.000w      5 calls
New vector                  :      0.000u      0.000s      0.000w      5 calls
HF: Form C                  :      0.000u      0.000s      0.000w      6 calls
HF: Form D                  :      0.000u      0.000s      0.000w      6 calls

-----------------------------------------------------------
Total PK formation time     :      0.017u      0.000s      0.010w      1 calls
HF: Form H                  :      0.000u      0.000s      0.001w      1 calls
HF: Form S/X                :      0.000u      0.000s      0.000w      1 calls
HF: Guess                   :      0.000u      0.000s      0.000w      1 calls
HF: Form G                  :      0.017u      0.000s      0.000w      6 calls
| JK: D                     :      0.000u      0.000s      0.000w      6 calls
| JK: USO2AO                :      0.000u      0.000s      0.000w      6 calls
| JK: JK                    :      0.000u      0.000s      0.000w      6 calls
| | PK computes JK          :      0.000u      0.000s      0.000w      6 calls
| JK: AO2USO                :      0.017u      0.000s      0.000w      6 calls
HF: Form F                  :      0.000u      0.000s      0.000w      6 calls
HF: DIIS                    :      0.000u      0.000s      0.001w      6 calls
| DIISManager::add_entry    :      0.000u      0.000s      0.000w      6 calls
| DIISManager::extrapolate  :      0.000u      0.000s      0.000w      5 calls
| | bMatrix setup           :      0.000u      0.000s      0.000w      5 calls
| | bMatrix pseudoinverse   :      0.000u      0.000s      0.000w      5 calls
| | New vector              :      0.000u      0.000s      0.000w      5 calls
HF: Form C                  :      0.000u      0.000s      0.000w      6 calls
HF: Form D                  :      0.000u      0.000s      0.000w      6 calls

***********************************************************

Host: hrgrimsl-XPS-13-9370

Timers On : Mon Sep 21 20:43:50 2020
Timers Off: Mon Sep 21 20:43:51 2020

Wall Time:        0.82 seconds

Total PK formation time     :      0.017u      0.000s      0.011w      1 calls
HF: Form H                  :      0.000u      0.000s      0.001w      1 calls
HF: Form S/X                :      0.000u      0.000s      0.000w      1 calls
HF: Guess                   :      0.000u      0.000s      0.000w      1 calls
HF: Form G                  :      0.000u      0.000s      0.000w      6 calls
JK: D                       :      0.000u      0.000s      0.000w      6 calls
JK: USO2AO                  :      0.000u      0.000s      0.000w      6 calls
JK: JK                      :      0.000u      0.000s      0.000w      6 calls
PK computes JK              :      0.000u      0.000s      0.000w      6 calls
JK: AO2USO                  :      0.000u      0.000s      0.000w      6 calls
HF: Form F                  :      0.000u      0.000s      0.000w      6 calls
HF: DIIS                    :      0.000u      0.000s      0.001w      6 calls
DIISManager::add_entry      :      0.000u      0.000s      0.000w      6 calls
DIISManager::extrapolate    :      0.000u      0.000s      0.000w      5 calls
bMatrix setup               :      0.000u      0.000s      0.000w      5 calls
bMatrix pseudoinverse       :      0.000u      0.000s      0.000w      5 calls
New vector                  :      0.000u      0.000s      0.000w      5 calls
HF: Form C                  :      0.000u      0.000s      0.000w      6 calls
HF: Form D                  :      0.000u      0.000s      0.000w      6 calls

-----------------------------------------------------------
Total PK formation time     :      0.017u      0.000s      0.011w      1 calls
HF: Form H                  :      0.000u      0.000s      0.001w      1 calls
HF: Form S/X                :      0.000u      0.000s      0.000w      1 calls
HF: Guess                   :      0.000u      0.000s      0.000w      1 calls
HF: Form G                  :      0.000u      0.000s      0.000w      6 calls
| JK: D                     :      0.000u      0.000s      0.000w      6 calls
| JK: USO2AO                :      0.000u      0.000s      0.000w      6 calls
| JK: JK                    :      0.000u      0.000s      0.000w      6 calls
| | PK computes JK          :      0.000u      0.000s      0.000w      6 calls
| JK: AO2USO                :      0.000u      0.000s      0.000w      6 calls
HF: Form F                  :      0.000u      0.000s      0.000w      6 calls
HF: DIIS                    :      0.000u      0.000s      0.001w      6 calls
| DIISManager::add_entry    :      0.000u      0.000s      0.000w      6 calls
| DIISManager::extrapolate  :      0.000u      0.000s      0.000w      5 calls
| | bMatrix setup           :      0.000u      0.000s      0.000w      5 calls
| | bMatrix pseudoinverse   :      0.000u      0.000s      0.000w      5 calls
| | New vector              :      0.000u      0.000s      0.000w      5 calls
HF: Form C                  :      0.000u      0.000s      0.000w      6 calls
HF: Form D                  :      0.000u      0.000s      0.000w      6 calls

***********************************************************

Host: hrgrimsl-XPS-13-9370

Timers On : Mon Sep 21 20:45:01 2020
Timers Off: Mon Sep 21 20:45:02 2020

Wall Time:        0.45 seconds

Total PK formation time     :      0.017u      0.000s      0.007w      1 calls
HF: Form H                  :      0.000u      0.000s      0.002w      1 calls
HF: Form S/X                :      0.000u      0.000s      0.000w      1 calls
HF: Guess                   :      0.000u      0.000s      0.000w      1 calls
HF: Form G                  :      0.000u      0.000s      0.000w      6 calls
JK: D                       :      0.000u      0.000s      0.000w      6 calls
JK: USO2AO                  :      0.000u      0.000s      0.000w      6 calls
[...]
| | bMatrix setup           :      0.000u      0.000s      0.000w      6 calls
| | bMatrix pseudoinverse   :      0.000u      0.000s      0.000w      6 calls
| | New vector              :      0.000u      0.000s      0.000w      6 calls
HF: Form C                  :      0.000u      0.000s      0.000w      7 calls
HF: Form D                  :      0.000u      0.000s      0.000w      7 calls

***********************************************************

Host: hrgrimsl-XPS-13-9370

Timers On : Tue Oct 20 15:15:50 2020
Timers Off: Tue Oct 20 15:17:50 2020

Wall Time:      119.41 seconds

Total PK formation time     :      0.017u      0.000s      0.007w      1 calls
HF: Form H                  :      0.000u      0.000s      0.000w      1 calls
HF: Form S/X                :      0.000u      0.000s      0.000w      1 calls
HF: Guess                   :      0.000u      0.000s      0.000w      1 calls
HF: Form G                  :      0.000u      0.000s      0.000w      7 calls
JK: D                       :      0.000u      0.000s      0.000w      7 calls
JK: USO2AO                  :      0.000u      0.000s      0.000w      7 calls
JK: JK                      :      0.000u      0.000s      0.000w      7 calls
PK computes JK              :      0.000u      0.000s      0.000w      7 calls
JK: AO2USO                  :      0.000u      0.000s      0.000w      7 calls
HF: Form F                  :      0.000u      0.000s      0.000w      7 calls
HF: DIIS                    :      0.000u      0.000s      0.000w      7 calls
DIISManager::add_entry      :      0.000u      0.000s      0.000w      7 calls
DIISManager::extrapolate    :      0.000u      0.000s      0.000w      6 calls
bMatrix setup               :      0.000u      0.000s      0.000w      6 calls
bMatrix pseudoinverse       :      0.000u      0.000s      0.000w      6 calls
New vector                  :      0.000u      0.000s      0.000w      6 calls
HF: Form C                  :      0.000u      0.000s      0.000w      7 calls
HF: Form D                  :      0.000u      0.000s      0.000w      7 calls

-----------------------------------------------------------
Total PK formation time     :      0.017u      0.000s      0.007w      1 calls
HF: Form H                  :      0.000u      0.000s      0.000w      1 calls
HF: Form S/X                :      0.000u      0.000s      0.000w      1 calls
HF: Guess                   :      0.000u      0.000s      0.000w      1 calls
HF: Form G                  :      0.000u      0.000s      0.000w      7 calls
| JK: D                     :      0.000u      0.000s      0.000w      7 calls
| JK: USO2AO                :      0.000u      0.000s      0.000w      7 calls
| JK: JK                    :      0.000u      0.000s      0.000w      7 calls
| | PK computes JK          :      0.000u      0.000s      0.000w      7 calls
| JK: AO2USO                :      0.000u      0.000s      0.000w      7 calls
HF: Form F                  :      0.000u      0.000s      0.000w      7 calls
HF: DIIS                    :      0.000u      0.000s      0.000w      7 calls
| DIISManager::add_entry    :      0.000u      0.000s      0.000w      7 calls
| DIISManager::extrapolate  :      0.000u      0.000s      0.000w      6 calls
| | bMatrix setup           :      0.000u      0.000s      0.000w      6 calls
| | bMatrix pseudoinverse   :      0.000u      0.000s      0.000w      6 calls
| | New vector              :      0.000u      0.000s      0.000w      6 calls
HF: Form C                  :      0.000u      0.000s      0.000w      7 calls
HF: Form D                  :      0.000u      0.000s      0.000w      7 calls

***********************************************************

Host: hrgrimsl-XPS-13-9370

Timers On : Tue Oct 20 15:33:04 2020
Timers Off: Tue Oct 20 15:34:14 2020

Wall Time:       70.12 seconds


-----------------------------------------------------------

***********************************************************

Host: hrgrimsl-XPS-13-9370

Timers On : Tue Oct 20 15:46:22 2020
Timers Off: Tue Oct 20 15:57:39 2020

Wall Time:      677.78 seconds


-----------------------------------------------------------

***********************************************************

Host: hrgrimsl-XPS-13-9370

Timers On : Tue Oct 20 16:11:04 2020
Timers Off: Tue Oct 20 16:23:34 2020

Wall Time:      750.05 seconds


-----------------------------------------------------------

***********************************************************

Host: hrgrimsl-XPS-13-9370

Timers On : Tue Oct 20 16:26:05 2020
Timers Off: Tue Oct 20 16:26:05 2020

Wall Time:        0.60 seconds


-----------------------------------------------------------

***********************************************************

Host: hrgrimsl-XPS-13-9370

Timers On : Tue Oct 20 16:26:23 2020
Timers Off: Tue Oct 20 16:26:24 2020

Wall Time:        0.62 seconds


-----------------------------------------------------------

***********************************************************

Host: hrgrimsl-XPS-13-9370

Timers On : Tue Oct 20 16:28:12 2020
Timers Off: Tue Oct 20 16:28:13 2020

Wall Time:        0.62 seconds


-----------------------------------------------------------

***********************************************************

Host: hrgrimsl-XPS-13-9370

Timers On : Tue Oct 20 16:29:19 2020
Timers Off: Tue Oct 20 16:29:20 2020

Wall Time:        0.60 seconds


-----------------------------------------------------------

***********************************************************

Host: hrgrimsl-XPS-13-9370

Timers On : Tue Oct 20 16:29:38 2020
Timers Off: Tue Oct 20 16:29:39 2020

Wall Time:        0.60 seconds


-----------------------------------------------------------

***********************************************************

Host: hrgrimsl-XPS-13-9370

Timers On : Tue Oct 20 16:29:53 2020
Timers Off: Tue Oct 20 16:29:53 2020

Wall Time:        0.59 seconds


-----------------------------------------------------------

***********************************************************

Host: hrgrimsl-XPS-13-9370

Timers On : Tue Oct 20 16:30:45 2020
Timers Off: Tue Oct 20 16:31:00 2020

Wall Time:       14.55 seconds


-----------------------------------------------------------

***********************************************************

Host: hrgrimsl-XPS-13-9370

Timers On : Tue Oct 20 16:31:27 2020
Timers Off: Tue Oct 20 16:31:51 2020

Wall Time:       24.60 seconds


-----------------------------------------------------------

***********************************************************

Host: hrgrimsl-XPS-13-9370

Timers On : Tue Oct 20 16:35:27 2020
Timers Off: Tue Oct 20 16:35:37 2020

Wall Time:       10.15 seconds


-----------------------------------------------------------

***********************************************************

Host: hrgrimsl-XPS-13-9370

Timers On : Tue Oct 20 16:35:56 2020
Timers Off: Tue Oct 20 16:36:17 2020

Wall Time:       20.59 seconds


-----------------------------------------------------------

***********************************************************

Host: hrgrimsl-XPS-13-9370

Timers On : Tue Oct 20 16:36:22 2020
Timers Off: Tue Oct 20 16:36:39 2020

Wall Time:       16.76 seconds


-----------------------------------------------------------

***********************************************************

Host: hrgrimsl-XPS-13-9370

Timers On : Tue Oct 20 16:43:31 2020
Timers Off: Tue Oct 20 16:44:23 2020

Wall Time:       51.42 seconds


-----------------------------------------------------------

***********************************************************

Host: hrgrimsl-XPS-13-9370

Timers On : Tue Oct 20 16:48:23 2020
Timers Off: Tue Oct 20 16:49:11 2020

Wall Time:       47.94 seconds


-----------------------------------------------------------

***********************************************************

Host: hrgrimsl-XPS-13-9370

Timers On : Tue Oct 20 16:55:24 2020
Timers Off: Tue Oct 20 17:42:35 2020

Wall Time:     2831.02 seconds


-----------------------------------------------------------

***********************************************************

Host: hrgrimsl-XPS-13-9370

Timers On : Tue Oct 20 18:02:53 2020
Timers Off: Tue Oct 20 18:13:38 2020

Wall Time:      644.39 seconds


-----------------------------------------------------------

***********************************************************

Host: hrgrimsl-XPS-13-9370

Timers On : Tue Oct 20 18:18:01 2020
Timers Off: Tue Oct 20 19:05:22 2020

Wall Time:     2840.66 seconds


-----------------------------------------------------------

***********************************************************

Host: hrgrimsl-XPS-13-9370

Timers On : Tue Oct 20 19:09:14 2020
Timers Off: Tue Oct 20 19:09:15 2020

Wall Time:        0.68 seconds


-----------------------------------------------------------

***********************************************************

Host: hrgrimsl-XPS-13-9370

Timers On : Tue Oct 20 19:09:43 2020
Timers Off: Tue Oct 20 19:09:43 2020

Wall Time:        0.68 seconds


-----------------------------------------------------------

***********************************************************

Host: hrgrimsl-XPS-13-9370

Timers On : Tue Oct 20 19:09:59 2020
Timers Off: Tue Oct 20 19:10:13 2020

Wall Time:       13.74 seconds


-----------------------------------------------------------

***********************************************************

Host: hrgrimsl-XPS-13-9370

Timers On : Tue Oct 20 19:16:12 2020
Timers Off: Tue Oct 20 19:16:26 2020

Wall Time:       13.86 seconds


-----------------------------------------------------------

***********************************************************

Host: hrgrimsl-XPS-13-9370

Timers On : Tue Oct 20 19:16:42 2020
Timers Off: Tue Oct 20 19:16:56 2020

Wall Time:       13.62 seconds


-----------------------------------------------------------

***********************************************************

Host: hrgrimsl-XPS-13-9370

Timers On : Tue Oct 20 19:17:11 2020
Timers Off: Tue Oct 20 19:17:29 2020

Wall Time:       18.03 seconds


-----------------------------------------------------------

***********************************************************

Host: hrgrimsl-XPS-13-9370

Timers On : Tue Oct 20 19:18:52 2020
Timers Off: Tue Oct 20 19:18:53 2020

Wall Time:        1.08 seconds


-----------------------------------------------------------

***********************************************************

Host: hrgrimsl-XPS-13-9370

Timers On : Tue Oct 20 19:25:50 2020
Timers Off: Tue Oct 20 20:54:47 2020

Wall Time:     5336.42 seconds


-----------------------------------------------------------

***********************************************************

Host: hrgrimsl-XPS-13-9370

Timers On : Tue Oct 20 21:21:20 2020
Timers Off: Tue Oct 20 21:21:20 2020

Wall Time:        0.63 seconds


-----------------------------------------------------------

***********************************************************

Host: hrgrimsl-XPS-13-9370

Timers On : Tue Oct 20 21:22:05 2020
Timers Off: Tue Oct 20 21:22:05 2020

Wall Time:        0.61 seconds


-----------------------------------------------------------

***********************************************************

Host: hrgrimsl-XPS-13-9370

Timers On : Tue Oct 20 21:23:54 2020
Timers Off: Tue Oct 20 21:23:55 2020

Wall Time:        0.61 seconds


-----------------------------------------------------------

***********************************************************

Host: hrgrimsl-XPS-13-9370

Timers On : Tue Oct 20 21:24:42 2020
Timers Off: Tue Oct 20 21:24:42 2020

Wall Time:        0.63 seconds


-----------------------------------------------------------

***********************************************************

Host: hrgrimsl-XPS-13-9370

Timers On : Tue Oct 20 21:25:14 2020
Timers Off: Tue Oct 20 21:25:14 2020

Wall Time:        0.62 seconds


-----------------------------------------------------------

***********************************************************

Host: hrgrimsl-XPS-13-9370

Timers On : Tue Oct 20 21:25:47 2020
Timers Off: Tue Oct 20 21:26:23 2020

Wall Time:       36.01 seconds


-----------------------------------------------------------

***********************************************************

Host: hrgrimsl-XPS-13-9370

Timers On : Tue Oct 20 21:27:10 2020
Timers Off: Tue Oct 20 23:08:40 2020

Wall Time:     6090.45 seconds


-----------------------------------------------------------

***********************************************************

Host: hrgrimsl-XPS-13-9370

Timers On : Tue Oct 20 23:14:13 2020
Timers Off: Tue Oct 20 23:24:05 2020

Wall Time:      591.60 seconds


-----------------------------------------------------------

***********************************************************

Host: hrgrimsl-XPS-13-9370

Timers On : Tue Oct 20 23:16:00 2020
Timers Off: Wed Oct 21 00:49:11 2020

Wall Time:     5591.28 seconds


-----------------------------------------------------------

***********************************************************

Host: hrgrimsl-XPS-13-9370

Timers On : Wed Oct 21 00:52:23 2020
Timers Off: Wed Oct 21 00:55:15 2020

Wall Time:      172.40 seconds


-----------------------------------------------------------

***********************************************************

Host: hrgrimsl-XPS-13-9370

Timers On : Wed Oct 21 00:55:12 2020
Timers Off: Wed Oct 21 00:56:42 2020

Wall Time:       89.79 seconds


-----------------------------------------------------------

***********************************************************

Host: hrgrimsl-XPS-13-9370

Timers On : Wed Oct 21 00:57:23 2020
Timers Off: Wed Oct 21 00:58:44 2020

Wall Time:       81.20 seconds


-----------------------------------------------------------

***********************************************************

Host: hrgrimsl-XPS-13-9370

Timers On : Wed Oct 21 10:17:12 2020
Timers Off: Wed Oct 21 10:17:56 2020

Wall Time:       44.73 seconds


-----------------------------------------------------------

***********************************************************

Host: hrgrimsl-XPS-13-9370

Timers On : Wed Oct 21 10:35:56 2020
Timers Off: Wed Oct 21 10:35:57 2020

Wall Time:        0.72 seconds


-----------------------------------------------------------

***********************************************************

Host: hrgrimsl-XPS-13-9370

Timers On : Wed Oct 21 10:39:47 2020
Timers Off: Wed Oct 21 10:50:13 2020

Wall Time:      626.18 seconds


-----------------------------------------------------------

***********************************************************

Host: hrgrimsl-XPS-13-9370

Timers On : Wed Oct 21 20:27:54 2020
Timers Off: Wed Oct 21 21:50:28 2020

Wall Time:     4953.87 seconds


-----------------------------------------------------------

***********************************************************

Host: hrgrimsl-XPS-13-9370

Timers On : Wed Oct 21 21:57:41 2020
Timers Off: Wed Oct 21 23:58:39 2020

Wall Time:     7258.70 seconds


-----------------------------------------------------------

***********************************************************

Host: hrgrimsl-XPS-13-9370

Timers On : Thu Oct 22 00:01:06 2020
Timers Off: Thu Oct 22 00:01:07 2020

Wall Time:        0.63 seconds


-----------------------------------------------------------

***********************************************************

Host: hrgrimsl-XPS-13-9370

Timers On : Thu Oct 22 00:01:21 2020
Timers Off: Thu Oct 22 00:01:21 2020

Wall Time:        0.59 seconds


-----------------------------------------------------------

***********************************************************

Host: hrgrimsl-XPS-13-9370

Timers On : Thu Oct 22 00:01:36 2020
Timers Off: Thu Oct 22 00:01:36 2020

Wall Time:        0.59 seconds


-----------------------------------------------------------

***********************************************************

Host: hrgrimsl-XPS-13-9370

Timers On : Thu Oct 22 00:02:42 2020
Timers Off: Thu Oct 22 00:02:56 2020

Wall Time:       13.95 seconds


-----------------------------------------------------------

***********************************************************

Host: hrgrimsl-XPS-13-9370

Timers On : Thu Oct 22 00:03:06 2020
Timers Off: Thu Oct 22 00:03:23 2020

Wall Time:       16.76 seconds


-----------------------------------------------------------

***********************************************************

Host: hrgrimsl-XPS-13-9370

Timers On : Thu Oct 22 00:04:56 2020
Timers Off: Thu Oct 22 00:05:06 2020

Wall Time:       10.78 seconds


-----------------------------------------------------------

***********************************************************

Host: hrgrimsl-XPS-13-9370

Timers On : Thu Oct 22 12:32:34 2020
Timers Off: Thu Oct 22 12:32:51 2020

Wall Time:       17.24 seconds


-----------------------------------------------------------

***********************************************************

Host: hrgrimsl-XPS-13-9370

Timers On : Thu Oct 22 12:33:20 2020
Timers Off: Thu Oct 22 12:33:41 2020

Wall Time:       21.58 seconds


-----------------------------------------------------------

***********************************************************

Host: hrgrimsl-XPS-13-9370

Timers On : Thu Oct 22 12:34:31 2020
Timers Off: Thu Oct 22 12:42:13 2020

Wall Time:      461.86 seconds


-----------------------------------------------------------

***********************************************************

Host: hrgrimsl-XPS-13-9370

Timers On : Thu Oct 22 00:05:18 2020
Timers Off: Thu Oct 22 13:22:10 2020

Wall Time:    47811.97 seconds


-----------------------------------------------------------

***********************************************************

Host: hrgrimsl-XPS-13-9370

Timers On : Thu Oct 22 17:40:02 2020
Timers Off: Thu Oct 22 17:40:03 2020

Wall Time:        0.62 seconds


-----------------------------------------------------------

***********************************************************

Host: hrgrimsl-XPS-13-9370

Timers On : Thu Oct 22 17:40:32 2020
Timers Off: Thu Oct 22 17:40:54 2020

Wall Time:       21.64 seconds


-----------------------------------------------------------

***********************************************************

Host: hrgrimsl-XPS-13-9370

Timers On : Thu Oct 22 17:44:37 2020
Timers Off: Thu Oct 22 17:45:41 2020

Wall Time:       64.01 seconds


-----------------------------------------------------------

***********************************************************

Host: hrgrimsl-XPS-13-9370

Timers On : Thu Oct 22 17:46:56 2020
Timers Off: Thu Oct 22 17:48:21 2020

Wall Time:       84.41 seconds


-----------------------------------------------------------

***********************************************************

Host: hrgrimsl-XPS-13-9370

Timers On : Thu Oct 22 17:48:44 2020
Timers Off: Thu Oct 22 17:50:49 2020

Wall Time:      125.52 seconds


-----------------------------------------------------------

***********************************************************

Host: hrgrimsl-XPS-13-9370

Timers On : Thu Oct 22 17:51:28 2020
Timers Off: Thu Oct 22 17:51:40 2020

Wall Time:       11.52 seconds


-----------------------------------------------------------

***********************************************************

Host: hrgrimsl-XPS-13-9370

Timers On : Thu Oct 22 18:34:20 2020
Timers Off: Thu Oct 22 19:39:33 2020

Wall Time:     3913.46 seconds


-----------------------------------------------------------

***********************************************************

Host: hrgrimsl-XPS-13-9370

Timers On : Thu Oct 22 19:41:48 2020
Timers Off: Thu Oct 22 19:58:22 2020

Wall Time:      993.50 seconds


-----------------------------------------------------------

***********************************************************

Host: hrgrimsl-XPS-13-9370

Timers On : Thu Oct 22 20:51:43 2020
Timers Off: Thu Oct 22 21:03:52 2020

Wall Time:      729.23 seconds


-----------------------------------------------------------

***********************************************************
