
Host: hrgrimsl-XPS-13-9370

Timers On : Mon Sep 21 19:11:55 2020
Timers Off: Mon Sep 21 19:11:55 2020

Wall Time:        0.78 seconds

Total PK formation time     :      0.017u      0.000s      0.010w      1 calls
HF: Form H                  :      0.000u      0.000s      0.001w      1 calls
HF: Form S/X                :      0.000u      0.000s      0.000w      1 calls
HF: Guess                   :      0.000u      0.000s      0.000w      1 calls
HF: Form G                  :      0.000u      0.000s      0.000w      2 calls
JK: D                       :      0.000u      0.000s      0.000w      2 calls
JK: USO2AO                  :      0.000u      0.000s      0.000w      2 calls
JK: JK                      :      0.000u      0.000s      0.000w      2 calls
PK computes JK              :      0.000u      0.000s      0.000w      2 calls
JK: AO2USO                  :      0.000u      0.000s      0.000w      2 calls
HF: Form F                  :      0.000u      0.000s      0.000w      2 calls
HF: DIIS                    :      0.000u      0.000s      0.001w      2 calls
DIISManager::add_entry      :      0.000u      0.000s      0.000w      2 calls
DIISManager::extrapolate    :      0.000u      0.000s      0.000w      1 calls
bMatrix setup               :      0.000u      0.000s      0.000w      1 calls
bMatrix pseudoinverse       :      0.000u      0.000s      0.000w      1 calls
New vector                  :      0.000u      0.000s      0.000w      1 calls
HF: Form C                  :      0.000u      0.000s      0.000w      2 calls
HF: Form D                  :      0.000u      0.000s      0.000w      2 calls

-----------------------------------------------------------
Total PK formation time     :      0.017u      0.000s      0.010w      1 calls
HF: Form H                  :      0.000u      0.000s      0.001w      1 calls
HF: Form S/X                :      0.000u      0.000s      0.000w      1 calls
HF: Guess                   :      0.000u      0.000s      0.000w      1 calls
HF: Form G                  :      0.000u      0.000s      0.000w      2 calls
| JK: D                     :      0.000u      0.000s      0.000w      2 calls
| JK: USO2AO                :      0.000u      0.000s      0.000w      2 calls
| JK: JK                    :      0.000u      0.000s      0.000w      2 calls
| | PK computes JK          :      0.000u      0.000s      0.000w      2 calls
| JK: AO2USO                :      0.000u      0.000s      0.000w      2 calls
HF: Form F                  :      0.000u      0.000s      0.000w      2 calls
HF: DIIS                    :      0.000u      0.000s      0.001w      2 calls
| DIISManager::add_entry    :      0.000u      0.000s      0.000w      2 calls
| DIISManager::extrapolate  :      0.000u      0.000s      0.000w      1 calls
| | bMatrix setup           :      0.000u      0.000s      0.000w      1 calls
| | bMatrix pseudoinverse   :      0.000u      0.000s      0.000w      1 calls
| | New vector              :      0.000u      0.000s      0.000w      1 calls
HF: Form C                  :      0.000u      0.000s      0.000w      2 calls
HF: Form D                  :      0.000u      0.000s      0.000w      2 calls

***********************************************************

Host: hrgrimsl-XPS-13-9370

Timers On : Mon Sep 21 19:12:18 2020
Timers Off: Mon Sep 21 19:12:19 2020

Wall Time:        0.83 seconds

Total PK formation time     :      0.017u      0.000s      0.011w      1 calls
HF: Form H                  :      0.000u      0.000s      0.001w      1 calls
HF: Form S/X                :      0.000u      0.000s      0.000w      1 calls
HF: Guess                   :      0.000u      0.000s      0.000w      1 calls
HF: Form G                  :      0.000u      0.000s      0.000w      2 calls
JK: D                       :      0.000u      0.000s      0.000w      2 calls
JK: USO2AO                  :      0.000u      0.000s      0.000w      2 calls
JK: JK                      :      0.000u      0.000s      0.000w      2 calls
PK computes JK              :      0.000u      0.000s      0.000w      2 calls
JK: AO2USO                  :      0.000u      0.000s      0.000w      2 calls
HF: Form F                  :      0.000u      0.000s      0.000w      2 calls
HF: DIIS                    :      0.000u      0.000s      0.000w      2 calls
DIISManager::add_entry      :      0.000u      0.000s      0.000w      2 calls
DIISManager::extrapolate    :      0.000u      0.000s      0.000w      1 calls
bMatrix setup               :      0.000u      0.000s      0.000w      1 calls
bMatrix pseudoinverse       :      0.000u      0.000s      0.000w      1 calls
New vector                  :      0.000u      0.000s      0.000w      1 calls
HF: Form C                  :      0.000u      0.000s      0.000w      2 calls
HF: Form D                  :      0.000u      0.000s      0.000w      2 calls

-----------------------------------------------------------
Total PK formation time     :      0.017u      0.000s      0.011w      1 calls
HF: Form H                  :      0.000u      0.000s      0.001w      1 calls
HF: Form S/X                :      0.000u      0.000s      0.000w      1 calls
HF: Guess                   :      0.000u      0.000s      0.000w      1 calls
HF: Form G                  :      0.000u      0.000s      0.000w      2 calls
| JK: D                     :      0.000u      0.000s      0.000w      2 calls
| JK: USO2AO                :      0.000u      0.000s      0.000w      2 calls
| JK: JK                    :      0.000u      0.000s      0.000w      2 calls
| | PK computes JK          :      0.000u      0.000s      0.000w      2 calls
| JK: AO2USO                :      0.000u      0.000s      0.000w      2 calls
HF: Form F                  :      0.000u      0.000s      0.000w      2 calls
HF: DIIS                    :      0.000u      0.000s      0.000w      2 calls
| DIISManager::add_entry    :      0.000u      0.000s      0.000w      2 calls
| DIISManager::extrapolate  :      0.000u      0.000s      0.000w      1 calls
| | bMatrix setup           :      0.000u      0.000s      0.000w      1 calls
| | bMatrix pseudoinverse   :      0.000u      0.000s      0.000w      1 calls
| | New vector              :      0.000u      0.000s      0.000w      1 calls
HF: Form C                  :      0.000u      0.000s      0.000w      2 calls
HF: Form D                  :      0.000u      0.000s      0.000w      2 calls

***********************************************************

Host: hrgrimsl-XPS-13-9370

Timers On : Mon Sep 21 19:16:10 2020
Timers Off: Mon Sep 21 19:16:10 2020

Wall Time:        0.33 seconds


-----------------------------------------------------------

***********************************************************

Host: hrgrimsl-XPS-13-9370

Timers On : Mon Sep 21 19:18:07 2020
Timers Off: Mon Sep 21 19:18:08 2020

Wall Time:        0.35 seconds


-----------------------------------------------------------

***********************************************************

Host: hrgrimsl-XPS-13-9370

Timers On : Mon Sep 21 19:19:59 2020
Timers Off: Mon Sep 21 19:19:59 2020

Wall Time:        0.44 seconds

Total PK formation time     :      0.000u      0.000s      0.007w      1 calls
HF: Form H                  :      0.000u      0.000s      0.000w      1 calls
HF: Form S/X                :      0.000u      0.000s      0.000w      1 calls
HF: Guess                   :      0.000u      0.000s      0.000w      1 calls
HF: Form G                  :      0.000u      0.000s      0.000w      2 calls
JK: D                       :      0.000u      0.000s      0.000w      2 calls
JK: USO2AO                  :      0.000u      0.000s      0.000w      2 calls
JK: JK                      :      0.000u      0.000s      0.000w      2 calls
PK computes JK              :      0.000u      0.000s      0.000w      2 calls
JK: AO2USO                  :      0.000u      0.000s      0.000w      2 calls
HF: Form F                  :      0.000u      0.000s      0.000w      2 calls
HF: DIIS                    :      0.000u      0.000s      0.000w      2 calls
DIISManager::add_entry      :      0.000u      0.000s      0.000w      2 calls
DIISManager::extrapolate    :      0.000u      0.000s      0.000w      1 calls
bMatrix setup               :      0.000u      0.000s      0.000w      1 calls
bMatrix pseudoinverse       :      0.000u      0.000s      0.000w      1 calls
New vector                  :      0.000u      0.000s      0.000w      1 calls
HF: Form C                  :      0.000u      0.000s      0.000w      2 calls
HF: Form D                  :      0.000u      0.000s      0.000w      2 calls

-----------------------------------------------------------
Total PK formation time     :      0.000u      0.000s      0.007w      1 calls
HF: Form H                  :      0.000u      0.000s      0.000w      1 calls
HF: Form S/X                :      0.000u      0.000s      0.000w      1 calls
HF: Guess                   :      0.000u      0.000s      0.000w      1 calls
HF: Form G                  :      0.000u      0.000s      0.000w      2 calls
| JK: D                     :      0.000u      0.000s      0.000w      2 calls
| JK: USO2AO                :      0.000u      0.000s      0.000w      2 calls
| JK: JK                    :      0.000u      0.000s      0.000w      2 calls
| | PK computes JK          :      0.000u      0.000s      0.000w      2 calls
| JK: AO2USO                :      0.000u      0.000s      0.000w      2 calls
HF: Form F                  :      0.000u      0.000s      0.000w      2 calls
HF: DIIS                    :      0.000u      0.000s      0.000w      2 calls
| DIISManager::add_entry    :      0.000u      0.000s      0.000w      2 calls
| DIISManager::extrapolate  :      0.000u      0.000s      0.000w      1 calls
| | bMatrix setup           :      0.000u      0.000s      0.000w      1 calls
| | bMatrix pseudoinverse   :      0.000u      0.000s      0.000w      1 calls
| | New vector              :      0.000u      0.000s      0.000w      1 calls
HF: Form C                  :      0.000u      0.000s      0.000w      2 calls
HF: Form D                  :      0.000u      0.000s      0.000w      2 calls

***********************************************************

Host: hrgrimsl-XPS-13-9370

Timers On : Mon Sep 21 19:20:37 2020
Timers Off: Mon Sep 21 19:20:38 2020

Wall Time:        0.47 seconds

Total PK formation time     :      0.017u      0.000s      0.017w      1 calls
HF: Form H                  :      0.000u      0.000s      0.001w      1 calls
HF: Form S/X                :      0.000u      0.000s      0.000w      1 calls
HF: Guess                   :      0.000u      0.000s      0.000w      1 calls
HF: Form G                  :      0.000u      0.000s      0.000w      2 calls
JK: D                       :      0.000u      0.000s      0.000w      2 calls
JK: USO2AO                  :      0.000u      0.000s      0.000w      2 calls
JK: JK                      :      0.000u      0.000s      0.000w      2 calls
PK computes JK              :      0.000u      0.000s      0.000w      2 calls
JK: AO2USO                  :      0.000u      0.000s      0.000w      2 calls
HF: Form F                  :      0.000u      0.000s      0.000w      2 calls
HF: DIIS                    :      0.000u      0.000s      0.000w      2 calls
DIISManager::add_entry      :      0.000u      0.000s      0.000w      2 calls
DIISManager::extrapolate    :      0.000u      0.000s      0.000w      1 calls
bMatrix setup               :      0.000u      0.000s      0.000w      1 calls
bMatrix pseudoinverse       :      0.000u      0.000s      0.000w      1 calls
New vector                  :      0.000u      0.000s      0.000w      1 calls
HF: Form C                  :      0.000u      0.000s      0.000w      2 calls
HF: Form D                  :      0.000u      0.000s      0.000w      2 calls

-----------------------------------------------------------
Total PK formation time     :      0.017u      0.000s      0.017w      1 calls
HF: Form H                  :      0.000u      0.000s      0.001w      1 calls
HF: Form S/X                :      0.000u      0.000s      0.000w      1 calls
HF: Guess                   :      0.000u      0.000s      0.000w      1 calls
HF: Form G                  :      0.000u      0.000s      0.000w      2 calls
| JK: D                     :      0.000u      0.000s      0.000w      2 calls
| JK: USO2AO                :      0.000u      0.000s      0.000w      2 calls
| JK: JK                    :      0.000u      0.000s      0.000w      2 calls
| | PK computes JK          :      0.000u      0.000s      0.000w      2 calls
| JK: AO2USO                :      0.000u      0.000s      0.000w      2 calls
HF: Form F                  :      0.000u      0.000s      0.000w      2 calls
HF: DIIS                    :      0.000u      0.000s      0.000w      2 calls
| DIISManager::add_entry    :      0.000u      0.000s      0.000w      2 calls
| DIISManager::extrapolate  :      0.000u      0.000s      0.000w      1 calls
| | bMatrix setup           :      0.000u      0.000s      0.000w      1 calls
| | bMatrix pseudoinverse   :      0.000u      0.000s      0.000w      1 calls
| | New vector              :      0.000u      0.000s      0.000w      1 calls
HF: Form C                  :      0.000u      0.000s      0.000w      2 calls
HF: Form D                  :      0.000u      0.000s      0.000w      2 calls

***********************************************************

Host: hrgrimsl-XPS-13-9370

Timers On : Mon Sep 21 19:21:18 2020
Timers Off: Mon Sep 21 19:21:18 2020

Wall Time:        0.45 seconds

Total PK formation time     :      0.000u      0.000s      0.006w      1 calls
HF: Form H                  :      0.000u      0.000s      0.000w      1 calls
HF: Form S/X                :      0.000u      0.000s      0.000w      1 calls
HF: Guess                   :      0.000u      0.000s      0.000w      1 calls
HF: Form G                  :      0.000u      0.000s      0.000w      2 calls
JK: D                       :      0.000u      0.000s      0.000w      2 calls
JK: USO2AO                  :      0.000u      0.000s      0.000w      2 calls
JK: JK                      :      0.000u      0.000s      0.000w      2 calls
PK computes JK              :      0.000u      0.000s      0.000w      2 calls
JK: AO2USO                  :      0.000u      0.000s      0.000w      2 calls
HF: Form F                  :      0.000u      0.000s      0.000w      2 calls
HF: DIIS                    :      0.000u      0.000s      0.000w      2 calls
DIISManager::add_entry      :      0.000u      0.000s      0.000w      2 calls
DIISManager::extrapolate    :      0.000u      0.000s      0.000w      1 calls
bMatrix setup               :      0.000u      0.000s      0.000w      1 calls
bMatrix pseudoinverse       :      0.000u      0.000s      0.000w      1 calls
New vector                  :      0.000u      0.000s      0.000w      1 calls
HF: Form C                  :      0.000u      0.000s      0.000w      2 calls
HF: Form D                  :      0.000u      0.000s      0.000w      2 calls

-----------------------------------------------------------
Total PK formation time     :      0.000u      0.000s      0.006w      1 calls
HF: Form H                  :      0.000u      0.000s      0.000w      1 calls
HF: Form S/X                :      0.000u      0.000s      0.000w      1 calls
HF: Guess                   :      0.000u      0.000s      0.000w      1 calls
HF: Form G                  :      0.000u      0.000s      0.000w      2 calls
| JK: D                     :      0.000u      0.000s      0.000w      2 calls
| JK: USO2AO                :      0.000u      0.000s      0.000w      2 calls
| JK: JK                    :      0.000u      0.000s      0.000w      2 calls
| | PK computes JK          :      0.000u      0.000s      0.000w      2 calls
| JK: AO2USO                :      0.000u      0.000s      0.000w      2 calls
HF: Form F                  :      0.000u      0.000s      0.000w      2 calls
HF: DIIS                    :      0.000u      0.000s      0.000w      2 calls
| DIISManager::add_entry    :      0.000u      0.000s      0.000w      2 calls
| DIISManager::extrapolate  :      0.000u      0.000s      0.000w      1 calls
| | bMatrix setup           :      0.000u      0.000s      0.000w      1 calls
| | bMatrix pseudoinverse   :      0.000u      0.000s      0.000w      1 calls
| | New vector              :      0.000u      0.000s      0.000w      1 calls
HF: Form C                  :      0.000u      0.000s      0.000w      2 calls
HF: Form D                  :      0.000u      0.000s      0.000w      2 calls

***********************************************************

Host: hrgrimsl-XPS-13-9370

Timers On : Mon Sep 21 19:21:40 2020
Timers Off: Mon Sep 21 19:21:41 2020

Wall Time:        0.47 seconds

Total PK formation time     :      0.033u      0.000s      0.019w      1 calls
HF: Form H                  :      0.000u      0.000s      0.001w      1 calls
HF: Form S/X                :      0.000u      0.000s      0.000w      1 calls
HF: Guess                   :      0.000u      0.000s      0.000w      1 calls
HF: Form G                  :      0.000u      0.000s      0.000w      2 calls
JK: D                       :      0.000u      0.000s      0.000w      2 calls
JK: USO2AO                  :      0.000u      0.000s      0.000w      2 calls
JK: JK                      :      0.000u      0.000s      0.000w      2 calls
PK computes JK              :      0.000u      0.000s      0.000w      2 calls
JK: AO2USO                  :      0.000u      0.000s      0.000w      2 calls
HF: Form F                  :      0.000u      0.000s      0.000w      2 calls
HF: DIIS                    :      0.000u      0.000s      0.000w      2 calls
DIISManager::add_entry      :      0.000u      0.000s      0.000w      2 calls
DIISManager::extrapolate    :      0.000u      0.000s      0.000w      1 calls
bMatrix setup               :      0.000u      0.000s      0.000w      1 calls
bMatrix pseudoinverse       :      0.000u      0.000s      0.000w      1 calls
New vector                  :      0.000u      0.000s      0.000w      1 calls
HF: Form C                  :      0.000u      0.000s      0.000w      2 calls
HF: Form D                  :      0.000u      0.000s      0.000w      2 calls

-----------------------------------------------------------
Total PK formation time     :      0.033u      0.000s      0.019w      1 calls
HF: Form H                  :      0.000u      0.000s      0.001w      1 calls
HF: Form S/X                :      0.000u      0.000s      0.000w      1 calls
HF: Guess                   :      0.000u      0.000s      0.000w      1 calls
HF: Form G                  :      0.000u      0.000s      0.000w      2 calls
| JK: D                     :      0.000u      0.000s      0.000w      2 calls
| JK: USO2AO                :      0.000u      0.000s      0.000w      2 calls
| JK: JK                    :      0.000u      0.000s      0.000w      2 calls
| | PK computes JK          :      0.000u      0.000s      0.000w      2 calls
| JK: AO2USO                :      0.000u      0.000s      0.000w      2 calls
HF: Form F                  :      0.000u      0.000s      0.000w      2 calls
HF: DIIS                    :      0.000u      0.000s      0.000w      2 calls
| DIISManager::add_entry    :      0.000u      0.000s      0.000w      2 calls
| DIISManager::extrapolate  :      0.000u      0.000s      0.000w      1 calls
| | bMatrix setup           :      0.000u      0.000s      0.000w      1 calls
| | bMatrix pseudoinverse   :      0.000u      0.000s      0.000w      1 calls
| | New vector              :      0.000u      0.000s      0.000w      1 calls
HF: Form C                  :      0.000u      0.000s      0.000w      2 calls
HF: Form D                  :      0.000u      0.000s      0.000w      2 calls

***********************************************************

Host: hrgrimsl-XPS-13-9370

Timers On : Mon Sep 21 19:21:55 2020
Timers Off: Mon Sep 21 19:21:56 2020

Wall Time:        0.44 seconds

Total PK formation time     :      0.017u      0.000s      0.006w      1 calls
HF: Form H                  :      0.000u      0.000s      0.000w      1 calls
HF: Form S/X                :      0.000u      0.000s      0.000w      1 calls
HF: Guess                   :      0.000u      0.000s      0.000w      1 calls
HF: Form G                  :      0.000u      0.000s      0.000w      2 calls
JK: D                       :      0.000u      0.000s      0.000w      2 calls
JK: USO2AO                  :      0.000u      0.000s      0.000w      2 calls
JK: JK                      :      0.000u      0.000s      0.000w      2 calls
PK computes JK              :      0.000u      0.000s      0.000w      2 calls
JK: AO2USO                  :      0.000u      0.000s      0.000w      2 calls
HF: Form F                  :      0.000u      0.000s      0.000w      2 calls
HF: DIIS                    :      0.000u      0.000s      0.000w      2 calls
DIISManager::add_entry      :      0.000u      0.000s      0.000w      2 calls
DIISManager::extrapolate    :      0.000u      0.000s      0.000w      1 calls
bMatrix setup               :      0.000u      0.000s      0.000w      1 calls
bMatrix pseudoinverse       :      0.000u      0.000s      0.000w      1 calls
New vector                  :      0.000u      0.000s      0.000w      1 calls
HF: Form C                  :      0.000u      0.000s      0.000w      2 calls
HF: Form D                  :      0.000u      0.000s      0.000w      2 calls

-----------------------------------------------------------
Total PK formation time     :      0.017u      0.000s      0.006w      1 calls
HF: Form H                  :      0.000u      0.000s      0.000w      1 calls
HF: Form S/X                :      0.000u      0.000s      0.000w      1 calls
HF: Guess                   :      0.000u      0.000s      0.000w      1 calls
HF: Form G                  :      0.000u      0.000s      0.000w      2 calls
| JK: D                     :      0.000u      0.000s      0.000w      2 calls
| JK: USO2AO                :      0.000u      0.000s      0.000w      2 calls
| JK: JK                    :      0.000u      0.000s      0.000w      2 calls
| | PK computes JK          :      0.000u      0.000s      0.000w      2 calls
| JK: AO2USO                :      0.000u      0.000s      0.000w      2 calls
HF: Form F                  :      0.000u      0.000s      0.000w      2 calls
HF: DIIS                    :      0.000u      0.000s      0.000w      2 calls
| DIISManager::add_entry    :      0.000u      0.000s      0.000w      2 calls
| DIISManager::extrapolate  :      0.000u      0.000s      0.000w      1 calls
| | bMatrix setup           :      0.000u      0.000s      0.000w      1 calls
| | bMatrix pseudoinverse   :      0.000u      0.000s      0.000w      1 calls
| | New vector              :      0.000u      0.000s      0.000w      1 calls
HF: Form C                  :      0.000u      0.000s      0.000w      2 calls
HF: Form D                  :      0.000u      0.000s      0.000w      2 calls

***********************************************************

Host: hrgrimsl-XPS-13-9370

Timers On : Mon Sep 21 19:24:51 2020
Timers Off: Mon Sep 21 19:24:51 2020

Wall Time:        0.44 seconds

Total PK formation time     :      0.000u      0.000s      0.008w      1 calls
HF: Form H                  :      0.000u      0.000s      0.000w      1 calls
HF: Form S/X                :      0.000u      0.000s      0.000w      1 calls
HF: Guess                   :      0.000u      0.000s      0.000w      1 calls
HF: Form G                  :      0.000u      0.000s      0.000w      2 calls
JK: D                       :      0.000u      0.000s      0.000w      2 calls
JK: USO2AO                  :      0.000u      0.000s      0.000w      2 calls
JK: JK                      :      0.000u      0.000s      0.000w      2 calls
PK computes JK              :      0.000u      0.000s      0.000w      2 calls
JK: AO2USO                  :      0.000u      0.000s      0.000w      2 calls
HF: Form F                  :      0.000u      0.000s      0.000w      2 calls
HF: DIIS                    :      0.000u      0.000s      0.000w      2 calls
DIISManager::add_entry      :      0.000u      0.000s      0.000w      2 calls
DIISManager::extrapolate    :      0.000u      0.000s      0.000w      1 calls
bMatrix setup               :      0.000u      0.000s      0.000w      1 calls
bMatrix pseudoinverse       :      0.000u      0.000s      0.000w      1 calls
New vector                  :      0.000u      0.000s      0.000w      1 calls
HF: Form C                  :      0.000u      0.000s      0.000w      2 calls
HF: Form D                  :      0.000u      0.000s      0.000w      2 calls

-----------------------------------------------------------
Total PK formation time     :      0.000u      0.000s      0.008w      1 calls
HF: Form H                  :      0.000u      0.000s      0.000w      1 calls
HF: Form S/X                :      0.000u      0.000s      0.000w      1 calls
HF: Guess                   :      0.000u      0.000s      0.000w      1 calls
HF: Form G                  :      0.000u      0.000s      0.000w      2 calls
| JK: D                     :      0.000u      0.000s      0.000w      2 calls
| JK: USO2AO                :      0.000u      0.000s      0.000w      2 calls
| JK: JK                    :      0.000u      0.000s      0.000w      2 calls
| | PK computes JK          :      0.000u      0.000s      0.000w      2 calls
| JK: AO2USO                :      0.000u      0.000s      0.000w      2 calls
HF: Form F                  :      0.000u      0.000s      0.000w      2 calls
HF: DIIS                    :      0.000u      0.000s      0.000w      2 calls
| DIISManager::add_entry    :      0.000u      0.000s      0.000w      2 calls
| DIISManager::extrapolate  :      0.000u      0.000s      0.000w      1 calls
| | bMatrix setup           :      0.000u      0.000s      0.000w      1 calls
| | bMatrix pseudoinverse   :      0.000u      0.000s      0.000w      1 calls
| | New vector              :      0.000u      0.000s      0.000w      1 calls
HF: Form C                  :      0.000u      0.000s      0.000w      2 calls
HF: Form D                  :      0.000u      0.000s      0.000w      2 calls

***********************************************************

Host: hrgrimsl-XPS-13-9370

Timers On : Mon Sep 21 19:25:19 2020
Timers Off: Mon Sep 21 19:25:19 2020

Wall Time:        0.47 seconds


-----------------------------------------------------------

***********************************************************

Host: hrgrimsl-XPS-13-9370

Timers On : Mon Sep 21 19:25:28 2020
Timers Off: Mon Sep 21 19:25:28 2020

Wall Time:        0.47 seconds

Total PK formation time     :      0.017u      0.000s      0.006w      1 calls
HF: Form H                  :      0.000u      0.000s      0.000w      1 calls
HF: Form S/X                :      0.000u      0.000s      0.000w      1 calls
HF: Guess                   :      0.000u      0.000s      0.000w      1 calls
HF: Form G                  :      0.000u      0.000s      0.000w      2 calls
JK: D                       :      0.000u      0.000s      0.000w      2 calls
JK: USO2AO                  :      0.000u      0.000s      0.000w      2 calls
JK: JK                      :      0.000u      0.000s      0.000w      2 calls
PK computes JK              :      0.000u      0.000s      0.000w      2 calls
JK: AO2USO                  :      0.000u      0.000s      0.000w      2 calls
HF: Form F                  :      0.000u      0.000s      0.000w      2 calls
HF: DIIS                    :      0.000u      0.000s      0.000w      2 calls
DIISManager::add_entry      :      0.000u      0.000s      0.000w      2 calls
DIISManager::extrapolate    :      0.000u      0.000s      0.000w      1 calls
bMatrix setup               :      0.000u      0.000s      0.000w      1 calls
bMatrix pseudoinverse       :      0.000u      0.000s      0.000w      1 calls
New vector                  :      0.000u      0.000s      0.000w      1 calls
HF: Form C                  :      0.000u      0.000s      0.000w      2 calls
HF: Form D                  :      0.000u      0.000s      0.000w      2 calls

-----------------------------------------------------------
Total PK formation time     :      0.017u      0.000s      0.006w      1 calls
HF: Form H                  :      0.000u      0.000s      0.000w      1 calls
HF: Form S/X                :      0.000u      0.000s      0.000w      1 calls
HF: Guess                   :      0.000u      0.000s      0.000w      1 calls
HF: Form G                  :      0.000u      0.000s      0.000w      2 calls
| JK: D                     :      0.000u      0.000s      0.000w      2 calls
| JK: USO2AO                :      0.000u      0.000s      0.000w      2 calls
| JK: JK                    :      0.000u      0.000s      0.000w      2 calls
| | PK computes JK          :      0.000u      0.000s      0.000w      2 calls
| JK: AO2USO                :      0.000u      0.000s      0.000w      2 calls
HF: Form F                  :      0.000u      0.000s      0.000w      2 calls
HF: DIIS                    :      0.000u      0.000s      0.000w      2 calls
| DIISManager::add_entry    :      0.000u      0.000s      0.000w      2 calls
| DIISManager::extrapolate  :      0.000u      0.000s      0.000w      1 calls
| | bMatrix setup           :      0.000u      0.000s      0.000w      1 calls
| | bMatrix pseudoinverse   :      0.000u      0.000s      0.000w      1 calls
| | New vector              :      0.000u      0.000s      0.000w      1 calls
HF: Form C                  :      0.000u      0.000s      0.000w      2 calls
HF: Form D                  :      0.000u      0.000s      0.000w      2 calls

***********************************************************

Host: hrgrimsl-XPS-13-9370

Timers On : Mon Sep 21 19:26:12 2020
Timers Off: Mon Sep 21 19:26:13 2020

Wall Time:        0.48 seconds

Total PK formation time     :      0.000u      0.000s      0.006w      1 calls
HF: Form H                  :      0.000u      0.000s      0.000w      1 calls
HF: Form S/X                :      0.000u      0.000s      0.000w      1 calls
HF: Guess                   :      0.000u      0.000s      0.000w      1 calls
HF: Form G                  :      0.000u      0.000s      0.000w      6 calls
JK: D                       :      0.000u      0.000s      0.000w      6 calls
JK: USO2AO                  :      0.000u      0.000s      0.000w      6 calls
JK: JK                      :      0.000u      0.000s      0.000w      6 calls
PK computes JK              :      0.000u      0.000s      0.000w      6 calls
JK: AO2USO                  :      0.000u      0.000s      0.000w      6 calls
HF: Form F                  :      0.000u      0.000s      0.000w      6 calls
HF: DIIS                    :      0.000u      0.000s      0.000w      6 calls
DIISManager::add_entry      :      0.000u      0.000s      0.000w      6 calls
DIISManager::extrapolate    :      0.000u      0.000s      0.000w      5 calls
bMatrix setup               :      0.000u      0.000s      0.000w      5 calls
bMatrix pseudoinverse       :      0.000u      0.000s      0.000w      5 calls
New vector                  :      0.000u      0.000s      0.000w      5 calls
HF: Form C                  :      0.000u      0.000s      0.000w      6 calls
HF: Form D                  :      0.000u      0.000s      0.000w      6 calls

-----------------------------------------------------------
Total PK formation time     :      0.000u      0.000s      0.006w      1 calls
HF: Form H                  :      0.000u      0.000s      0.000w      1 calls
HF: Form S/X                :      0.000u      0.000s      0.000w      1 calls
HF: Guess                   :      0.000u      0.000s      0.000w      1 calls
HF: Form G                  :      0.000u      0.000s      0.000w      6 calls
| JK: D                     :      0.000u      0.000s      0.000w      6 calls
| JK: USO2AO                :      0.000u      0.000s      0.000w      6 calls
| JK: JK                    :      0.000u      0.000s      0.000w      6 calls
| | PK computes JK          :      0.000u      0.000s      0.000w      6 calls
| JK: AO2USO                :      0.000u      0.000s      0.000w      6 calls
HF: Form F                  :      0.000u      0.000s      0.000w      6 calls
HF: DIIS                    :      0.000u      0.000s      0.000w      6 calls
| DIISManager::add_entry    :      0.000u      0.000s      0.000w      6 calls
| DIISManager::extrapolate  :      0.000u      0.000s      0.000w      5 calls
| | bMatrix setup           :      0.000u      0.000s      0.000w      5 calls
| | bMatrix pseudoinverse   :      0.000u      0.000s      0.000w      5 calls
| | New vector              :      0.000u      0.000s      0.000w      5 calls
HF: Form C                  :      0.000u      0.000s      0.000w      6 calls
HF: Form D                  :      0.000u      0.000s      0.000w      6 calls

***********************************************************

Host: hrgrimsl-XPS-13-9370

Timers On : Mon Sep 21 19:32:23 2020
Timers Off: Mon Sep 21 19:32:24 2020

Wall Time:        0.47 seconds

Total PK formation time     :      0.000u      0.000s      0.007w      1 calls
HF: Form H                  :      0.000u      0.000s      0.000w      1 calls
HF: Form S/X                :      0.000u      0.000s      0.000w      1 calls
HF: Guess                   :      0.000u      0.000s      0.000w      1 calls
HF: Form G                  :      0.000u      0.000s      0.000w      6 calls
JK: D                       :      0.000u      0.000s      0.000w      6 calls
JK: USO2AO                  :      0.000u      0.000s      0.000w      6 calls
JK: JK                      :      0.000u      0.000s      0.000w      6 calls
PK computes JK              :      0.000u      0.000s      0.000w      6 calls
JK: AO2USO                  :      0.000u      0.000s      0.000w      6 calls
HF: Form F                  :      0.000u      0.000s      0.000w      6 calls
HF: DIIS                    :      0.000u      0.000s      0.000w      6 calls
DIISManager::add_entry      :      0.000u      0.000s      0.000w      6 calls
DIISManager::extrapolate    :      0.000u      0.000s      0.000w      5 calls
bMatrix setup               :      0.000u      0.000s      0.000w      5 calls
bMatrix pseudoinverse       :      0.000u      0.000s      0.000w      5 calls
New vector                  :      0.000u      0.000s      0.000w      5 calls
HF: Form C                  :      0.000u      0.000s      0.000w      6 calls
HF: Form D                  :      0.000u      0.000s      0.000w      6 calls

-----------------------------------------------------------
Total PK formation time     :      0.000u      0.000s      0.007w      1 calls
HF: Form H                  :      0.000u      0.000s      0.000w      1 calls
HF: Form S/X                :      0.000u      0.000s      0.000w      1 calls
HF: Guess                   :      0.000u      0.000s      0.000w      1 calls
HF: Form G                  :      0.000u      0.000s      0.000w      6 calls
| JK: D                     :      0.000u      0.000s      0.000w      6 calls
| JK: USO2AO                :      0.000u      0.000s      0.000w      6 calls
| JK: JK                    :      0.000u      0.000s      0.000w      6 calls
| | PK computes JK          :      0.000u      0.000s      0.000w      6 calls
| JK: AO2USO                :      0.000u      0.000s      0.000w      6 calls
HF: Form F                  :      0.000u      0.000s      0.000w      6 calls
HF: DIIS                    :      0.000u      0.000s      0.000w      6 calls
| DIISManager::add_entry    :      0.000u      0.000s      0.000w      6 calls
| DIISManager::extrapolate  :      0.000u      0.000s      0.000w      5 calls
| | bMatrix setup           :      0.000u      0.000s      0.000w      5 calls
| | bMatrix pseudoinverse   :      0.000u      0.000s      0.000w      5 calls
| | New vector              :      0.000u      0.000s      0.000w      5 calls
HF: Form C                  :      0.000u      0.000s      0.000w      6 calls
HF: Form D                  :      0.000u      0.000s      0.000w      6 calls

***********************************************************

Host: hrgrimsl-XPS-13-9370

Timers On : Mon Sep 21 19:34:18 2020
Timers Off: Mon Sep 21 19:34:18 2020

Wall Time:        0.44 seconds

Total PK formation time     :      0.000u      0.000s      0.007w      1 calls
HF: Form H                  :      0.000u      0.000s      0.000w      1 calls
HF: Form S/X                :      0.000u      0.000s      0.000w      1 calls
HF: Guess                   :      0.000u      0.000s      0.000w      1 calls
HF: Form G                  :      0.000u      0.000s      0.000w      6 calls
JK: D                       :      0.000u      0.000s      0.000w      6 calls
JK: USO2AO                  :      0.000u      0.000s      0.000w      6 calls
JK: JK                      :      0.000u      0.000s      0.000w      6 calls
PK computes JK              :      0.000u      0.000s      0.000w      6 calls
JK: AO2USO                  :      0.000u      0.000s      0.000w      6 calls
HF: Form F                  :      0.000u      0.000s      0.000w      6 calls
HF: DIIS                    :      0.000u      0.000s      0.001w      6 calls
DIISManager::add_entry      :      0.000u      0.000s      0.000w      6 calls
DIISManager::extrapolate    :      0.000u      0.000s      0.000w      5 calls
bMatrix setup               :      0.000u      0.000s      0.000w      5 calls
bMatrix pseudoinverse       :      0.000u      0.000s      0.000w      5 calls
New vector                  :      0.000u      0.000s      0.000w      5 calls
HF: Form C                  :      0.000u      0.000s      0.000w      6 calls
HF: Form D                  :      0.000u      0.000s      0.000w      6 calls

-----------------------------------------------------------
Total PK formation time     :      0.000u      0.000s      0.007w      1 calls
HF: Form H                  :      0.000u      0.000s      0.000w      1 calls
HF: Form S/X                :      0.000u      0.000s      0.000w      1 calls
HF: Guess                   :      0.000u      0.000s      0.000w      1 calls
HF: Form G                  :      0.000u      0.000s      0.000w      6 calls
| JK: D                     :      0.000u      0.000s      0.000w      6 calls
| JK: USO2AO                :      0.000u      0.000s      0.000w      6 calls
| JK: JK                    :      0.000u      0.000s      0.000w      6 calls
| | PK computes JK          :      0.000u      0.000s      0.000w      6 calls
| JK: AO2USO                :      0.000u      0.000s      0.000w      6 calls
HF: Form F                  :      0.000u      0.000s      0.000w      6 calls
HF: DIIS                    :      0.000u      0.000s      0.001w      6 calls
| DIISManager::add_entry    :      0.000u      0.000s      0.000w      6 calls
| DIISManager::extrapolate  :      0.000u      0.000s      0.000w      5 calls
| | bMatrix setup           :      0.000u      0.000s      0.000w      5 calls
| | bMatrix pseudoinverse   :      0.000u      0.000s      0.000w      5 calls
| | New vector              :      0.000u      0.000s      0.000w      5 calls
HF: Form C                  :      0.000u      0.000s      0.000w      6 calls
HF: Form D                  :      0.000u      0.000s      0.000w      6 calls

***********************************************************

Host: hrgrimsl-XPS-13-9370

Timers On : Mon Sep 21 19:34:28 2020
Timers Off: Mon Sep 21 19:34:29 2020

Wall Time:        0.46 seconds

Total PK formation time     :      0.033u      0.000s      0.018w      1 calls
HF: Form H                  :      0.000u      0.000s      0.001w      1 calls
HF: Form S/X                :      0.000u      0.000s      0.000w      1 calls
HF: Guess                   :      0.000u      0.000s      0.000w      1 calls
HF: Form G                  :      0.000u      0.000s      0.000w      6 calls
JK: D                       :      0.000u      0.000s      0.000w      6 calls
JK: USO2AO                  :      0.000u      0.000s      0.000w      6 calls
JK: JK                      :      0.000u      0.000s      0.000w      6 calls
PK computes JK              :      0.000u      0.000s      0.000w      6 calls
JK: AO2USO                  :      0.000u      0.000s      0.000w      6 calls
HF: Form F                  :      0.000u      0.000s      0.000w      6 calls
HF: DIIS                    :      0.000u      0.000s      0.001w      6 calls
DIISManager::add_entry      :      0.000u      0.000s      0.000w      6 calls
DIISManager::extrapolate    :      0.000u      0.000s      0.000w      5 calls
bMatrix setup               :      0.000u      0.000s      0.000w      5 calls
bMatrix pseudoinverse       :      0.000u      0.000s      0.000w      5 calls
New vector                  :      0.000u      0.000s      0.000w      5 calls
HF: Form C                  :      0.000u      0.000s      0.000w      6 calls
HF: Form D                  :      0.000u      0.000s      0.000w      6 calls

-----------------------------------------------------------
Total PK formation time     :      0.033u      0.000s      0.018w      1 calls
HF: Form H                  :      0.000u      0.000s      0.001w      1 calls
HF: Form S/X                :      0.000u      0.000s      0.000w      1 calls
HF: Guess                   :      0.000u      0.000s      0.000w      1 calls
HF: Form G                  :      0.000u      0.000s      0.000w      6 calls
| JK: D                     :      0.000u      0.000s      0.000w      6 calls
| JK: USO2AO                :      0.000u      0.000s      0.000w      6 calls
| JK: JK                    :      0.000u      0.000s      0.000w      6 calls
| | PK computes JK          :      0.000u      0.000s      0.000w      6 calls
| JK: AO2USO                :      0.000u      0.000s      0.000w      6 calls
HF: Form F                  :      0.000u      0.000s      0.000w      6 calls
HF: DIIS                    :      0.000u      0.000s      0.001w      6 calls
| DIISManager::add_entry    :      0.000u      0.000s      0.000w      6 calls
| DIISManager::extrapolate  :      0.000u      0.000s      0.000w      5 calls
| | bMatrix setup           :      0.000u      0.000s      0.000w      5 calls
| | bMatrix pseudoinverse   :      0.000u      0.000s      0.000w      5 calls
| | New vector              :      0.000u      0.000s      0.000w      5 calls
HF: Form C                  :      0.000u      0.000s      0.000w      6 calls
HF: Form D                  :      0.000u      0.000s      0.000w      6 calls

***********************************************************

Host: hrgrimsl-XPS-13-9370

Timers On : Mon Sep 21 19:36:57 2020
Timers Off: Mon Sep 21 19:36:57 2020

Wall Time:        0.45 seconds

Total PK formation time     :      0.000u      0.000s      0.006w      1 calls
HF: Form H                  :      0.000u      0.000s      0.000w      1 calls
HF: Form S/X                :      0.000u      0.000s      0.000w      1 calls
HF: Guess                   :      0.000u      0.000s      0.000w      1 calls
HF: Form G                  :      0.000u      0.000s      0.000w      6 calls
JK: D                       :      0.000u      0.000s      0.000w      6 calls
JK: USO2AO                  :      0.000u      0.000s      0.000w      6 calls
JK: JK                      :      0.000u      0.000s      0.000w      6 calls
PK computes JK              :      0.000u      0.000s      0.000w      6 calls
JK: AO2USO                  :      0.000u      0.000s      0.000w      6 calls
HF: Form F                  :      0.000u      0.000s      0.000w      6 calls
HF: DIIS                    :      0.000u      0.000s      0.000w      6 calls
DIISManager::add_entry      :      0.000u      0.000s      0.000w      6 calls
DIISManager::extrapolate    :      0.000u      0.000s      0.000w      5 calls
bMatrix setup               :      0.000u      0.000s      0.000w      5 calls
bMatrix pseudoinverse       :      0.000u      0.000s      0.000w      5 calls
New vector                  :      0.000u      0.000s      0.000w      5 calls
HF: Form C                  :      0.000u      0.000s      0.000w      6 calls
HF: Form D                  :      0.000u      0.000s      0.000w      6 calls

-----------------------------------------------------------
Total PK formation time     :      0.000u      0.000s      0.006w      1 calls
HF: Form H                  :      0.000u      0.000s      0.000w      1 calls
HF: Form S/X                :      0.000u      0.000s      0.000w      1 calls
HF: Guess                   :      0.000u      0.000s      0.000w      1 calls
HF: Form G                  :      0.000u      0.000s      0.000w      6 calls
| JK: D                     :      0.000u      0.000s      0.000w      6 calls
| JK: USO2AO                :      0.000u      0.000s      0.000w      6 calls
| JK: JK                    :      0.000u      0.000s      0.000w      6 calls
| | PK computes JK          :      0.000u      0.000s      0.000w      6 calls
| JK: AO2USO                :      0.000u      0.000s      0.000w      6 calls
HF: Form F                  :      0.000u      0.000s      0.000w      6 calls
HF: DIIS                    :      0.000u      0.000s      0.000w      6 calls
| DIISManager::add_entry    :      0.000u      0.000s      0.000w      6 calls
| DIISManager::extrapolate  :      0.000u      0.000s      0.000w      5 calls
| | bMatrix setup           :      0.000u      0.000s      0.000w      5 calls
| | bMatrix pseudoinverse   :      0.000u      0.000s      0.000w      5 calls
| | New vector              :      0.000u      0.000s      0.000w      5 calls
HF: Form C                  :      0.000u      0.000s      0.000w      6 calls
HF: Form D                  :      0.000u      0.000s      0.000w      6 calls

***********************************************************

Host: hrgrimsl-XPS-13-9370

Timers On : Mon Sep 21 20:31:03 2020
Timers Off: Mon Sep 21 20:31:04 2020

Wall Time:        0.45 seconds

Total PK formation time     :      0.017u      0.017s      0.006w      1 calls
HF: Form H                  :      0.000u      0.000s      0.000w      1 calls
HF: Form S/X                :      0.000u      0.000s      0.000w      1 calls
HF: Guess                   :      0.000u      0.000s      0.000w      1 calls
HF: Form G                  :      0.000u      0.000s      0.000w      6 calls
JK: D                       :      0.000u      0.000s      0.000w      6 calls
JK: USO2AO                  :      0.000u      0.000s      0.000w      6 calls
JK: JK                      :      0.000u      0.000s      0.000w      6 calls
PK computes JK              :      0.000u      0.000s      0.000w      6 calls
JK: AO2USO                  :      0.000u      0.000s      0.000w      6 calls
HF: Form F                  :      0.000u      0.000s      0.000w      6 calls
HF: DIIS                    :      0.000u      0.000s      0.000w      6 calls
DIISManager::add_entry      :      0.000u      0.000s      0.000w      6 calls
DIISManager::extrapolate    :      0.000u      0.000s      0.000w      5 calls
bMatrix setup               :      0.000u      0.000s      0.000w      5 calls
bMatrix pseudoinverse       :      0.000u      0.000s      0.000w      5 calls
New vector                  :      0.000u      0.000s      0.000w      5 calls
HF: Form C                  :      0.000u      0.000s      0.000w      6 calls
HF: Form D                  :      0.000u      0.000s      0.000w      6 calls

-----------------------------------------------------------
Total PK formation time     :      0.017u      0.017s      0.006w      1 calls
HF: Form H                  :      0.000u      0.000s      0.000w      1 calls
HF: Form S/X                :      0.000u      0.000s      0.000w      1 calls
HF: Guess                   :      0.000u      0.000s      0.000w      1 calls
HF: Form G                  :      0.000u      0.000s      0.000w      6 calls
| JK: D                     :      0.000u      0.000s      0.000w      6 calls
| JK: USO2AO                :      0.000u      0.000s      0.000w      6 calls
| JK: JK                    :      0.000u      0.000s      0.000w      6 calls
| | PK computes JK          :      0.000u      0.000s      0.000w      6 calls
| JK: AO2USO                :      0.000u      0.000s      0.000w      6 calls
HF: Form F                  :      0.000u      0.000s      0.000w      6 calls
HF: DIIS                    :      0.000u      0.000s      0.000w      6 calls
| DIISManager::add_entry    :      0.000u      0.000s      0.000w      6 calls
| DIISManager::extrapolate  :      0.000u      0.000s      0.000w      5 calls
| | bMatrix setup           :      0.000u      0.000s      0.000w      5 calls
| | bMatrix pseudoinverse   :      0.000u      0.000s      0.000w      5 calls
| | New vector              :      0.000u      0.000s      0.000w      5 calls
HF: Form C                  :      0.000u      0.000s      0.000w      6 calls
HF: Form D                  :      0.000u      0.000s      0.000w      6 calls

***********************************************************

Host: hrgrimsl-XPS-13-9370

Timers On : Mon Sep 21 20:37:16 2020
Timers Off: Mon Sep 21 20:37:16 2020

Wall Time:        0.47 seconds

Total PK formation time     :      0.033u      0.000s      0.017w      1 calls
HF: Form H                  :      0.000u      0.000s      0.001w      1 calls
HF: Form S/X                :      0.000u      0.000s      0.000w      1 calls
HF: Guess                   :      0.000u      0.000s      0.000w      1 calls
HF: Form G                  :      0.000u      0.000s      0.000w      6 calls
JK: D                       :      0.000u      0.000s      0.000w      6 calls
JK: USO2AO                  :      0.000u      0.000s      0.000w      6 calls
JK: JK                      :      0.000u      0.000s      0.000w      6 calls
PK computes JK              :      0.000u      0.000s      0.000w      6 calls
JK: AO2USO                  :      0.000u      0.000s      0.000w      6 calls
HF: Form F                  :      0.000u      0.000s      0.000w      6 calls
HF: DIIS                    :      0.000u      0.000s      0.001w      6 calls
DIISManager::add_entry      :      0.000u      0.000s      0.000w      6 calls
DIISManager::extrapolate    :      0.000u      0.000s      0.000w      5 calls
bMatrix setup               :      0.000u      0.000s      0.000w      5 calls
bMatrix pseudoinverse       :      0.000u      0.000s      0.000w      5 calls
New vector                  :      0.000u      0.000s      0.000w      5 calls
HF: Form C                  :      0.000u      0.000s      0.000w      6 calls
HF: Form D                  :      0.000u      0.000s      0.000w      6 calls

-----------------------------------------------------------
Total PK formation time     :      0.033u      0.000s      0.017w      1 calls
HF: Form H                  :      0.000u      0.000s      0.001w      1 calls
HF: Form S/X                :      0.000u      0.000s      0.000w      1 calls
HF: Guess                   :      0.000u      0.000s      0.000w      1 calls
HF: Form G                  :      0.000u      0.000s      0.000w      6 calls
| JK: D                     :      0.000u      0.000s      0.000w      6 calls
| JK: USO2AO                :      0.000u      0.000s      0.000w      6 calls
| JK: JK                    :      0.000u      0.000s      0.000w      6 calls
| | PK computes JK          :      0.000u      0.000s      0.000w      6 calls
| JK: AO2USO                :      0.000u      0.000s      0.000w      6 calls
HF: Form F                  :      0.000u      0.000s      0.000w      6 calls
HF: DIIS                    :      0.000u      0.000s      0.001w      6 calls
| DIISManager::add_entry    :      0.000u      0.000s      0.000w      6 calls
| DIISManager::extrapolate  :      0.000u      0.000s      0.000w      5 calls
| | bMatrix setup           :      0.000u      0.000s      0.000w      5 calls
| | bMatrix pseudoinverse   :      0.000u      0.000s      0.000w      5 calls
| | New vector              :      0.000u      0.000s      0.000w      5 calls
HF: Form C                  :      0.000u      0.000s      0.000w      6 calls
HF: Form D                  :      0.000u      0.000s      0.000w      6 calls

***********************************************************

Host: hrgrimsl-XPS-13-9370

Timers On : Mon Sep 21 20:37:49 2020
Timers Off: Mon Sep 21 20:37:50 2020

Wall Time:        0.45 seconds

Total PK formation time     :      0.000u      0.000s      0.006w      1 calls
HF: Form H                  :      0.000u      0.000s      0.000w      1 calls
HF: Form S/X                :      0.000u      0.000s      0.000w      1 calls
HF: Guess                   :      0.000u      0.000s      0.000w      1 calls
HF: Form G                  :      0.000u      0.000s      0.000w      6 calls
JK: D                       :      0.000u      0.000s      0.000w      6 calls
JK: USO2AO                  :      0.000u      0.000s      0.000w      6 calls
JK: JK                      :      0.000u      0.000s      0.000w      6 calls
PK computes JK              :      0.000u      0.000s      0.000w      6 calls
JK: AO2USO                  :      0.000u      0.000s      0.000w      6 calls
HF: Form F                  :      0.000u      0.000s      0.000w      6 calls
HF: DIIS                    :      0.000u      0.000s      0.000w      6 calls
DIISManager::add_entry      :      0.000u      0.000s      0.000w      6 calls
DIISManager::extrapolate    :      0.000u      0.000s      0.000w      5 calls
bMatrix setup               :      0.000u      0.000s      0.000w      5 calls
bMatrix pseudoinverse       :      0.000u      0.000s      0.000w      5 calls
New vector                  :      0.000u      0.000s      0.000w      5 calls
HF: Form C                  :      0.000u      0.000s      0.000w      6 calls
HF: Form D                  :      0.000u      0.000s      0.000w      6 calls

-----------------------------------------------------------
Total PK formation time     :      0.000u      0.000s      0.006w      1 calls
HF: Form H                  :      0.000u      0.000s      0.000w      1 calls
HF: Form S/X                :      0.000u      0.000s      0.000w      1 calls
HF: Guess                   :      0.000u      0.000s      0.000w      1 calls
HF: Form G                  :      0.000u      0.000s      0.000w      6 calls
| JK: D                     :      0.000u      0.000s      0.000w      6 calls
| JK: USO2AO                :      0.000u      0.000s      0.000w      6 calls
| JK: JK                    :      0.000u      0.000s      0.000w      6 calls
| | PK computes JK          :      0.000u      0.000s      0.000w      6 calls
| JK: AO2USO                :      0.000u      0.000s      0.000w      6 calls
HF: Form F                  :      0.000u      0.000s      0.000w      6 calls
HF: DIIS                    :      0.000u      0.000s      0.000w      6 calls
| DIISManager::add_entry    :      0.000u      0.000s      0.000w      6 calls
| DIISManager::extrapolate  :      0.000u      0.000s      0.000w      5 calls
| | bMatrix setup           :      0.000u      0.000s      0.000w      5 calls
| | bMatrix pseudoinverse   :      0.000u      0.000s      0.000w      5 calls
| | New vector              :      0.000u      0.000s      0.000w      5 calls
HF: Form C                  :      0.000u      0.000s      0.000w      6 calls
HF: Form D                  :      0.000u      0.000s      0.000w      6 calls

***********************************************************

Host: hrgrimsl-XPS-13-9370

Timers On : Mon Sep 21 20:38:16 2020
Timers Off: Mon Sep 21 20:38:17 2020

Wall Time:        0.45 seconds

Total PK formation time     :      0.017u      0.000s      0.007w      1 calls
HF: Form H                  :      0.000u      0.000s      0.000w      1 calls
HF: Form S/X                :      0.000u      0.000s      0.000w      1 calls
HF: Guess                   :      0.000u      0.000s      0.000w      1 calls
HF: Form G                  :      0.000u      0.000s      0.000w      6 calls
JK: D                       :      0.000u      0.000s      0.000w      6 calls
JK: USO2AO                  :      0.000u      0.000s      0.000w      6 calls
JK: JK                      :      0.000u      0.000s      0.000w      6 calls
PK computes JK              :      0.000u      0.000s      0.000w      6 calls
JK: AO2USO                  :      0.000u      0.000s      0.000w      6 calls
HF: Form F                  :      0.000u      0.000s      0.000w      6 calls
HF: DIIS                    :      0.000u      0.000s      0.000w      6 calls
DIISManager::add_entry      :      0.000u      0.000s      0.000w      6 calls
DIISManager::extrapolate    :      0.000u      0.000s      0.000w      5 calls
bMatrix setup               :      0.000u      0.000s      0.000w      5 calls
bMatrix pseudoinverse       :      0.000u      0.000s      0.000w      5 calls
New vector                  :      0.000u      0.000s      0.000w      5 calls
HF: Form C                  :      0.000u      0.000s      0.000w      6 calls
HF: Form D                  :      0.000u      0.000s      0.000w      6 calls

-----------------------------------------------------------
Total PK formation time     :      0.017u      0.000s      0.007w      1 calls
HF: Form H                  :      0.000u      0.000s      0.000w      1 calls
HF: Form S/X                :      0.000u      0.000s      0.000w      1 calls
HF: Guess                   :      0.000u      0.000s      0.000w      1 calls
HF: Form G                  :      0.000u      0.000s      0.000w      6 calls
| JK: D                     :      0.000u      0.000s      0.000w      6 calls
| JK: USO2AO                :      0.000u      0.000s      0.000w      6 calls
| JK: JK                    :      0.000u      0.000s      0.000w      6 calls
| | PK computes JK          :      0.000u      0.000s      0.000w      6 calls
| JK: AO2USO                :      0.000u      0.000s      0.000w      6 calls
HF: Form F                  :      0.000u      0.000s      0.000w      6 calls
HF: DIIS                    :      0.000u      0.000s      0.000w      6 calls
| DIISManager::add_entry    :      0.000u      0.000s      0.000w      6 calls
| DIISManager::extrapolate  :      0.000u      0.000s      0.000w      5 calls
| | bMatrix setup           :      0.000u      0.000s      0.000w      5 calls
| | bMatrix pseudoinverse   :      0.000u      0.000s      0.000w      5 calls
| | New vector              :      0.000u      0.000s      0.000w      5 calls
HF: Form C                  :      0.000u      0.000s      0.000w      6 calls
HF: Form D                  :      0.000u      0.000s      0.000w      6 calls

***********************************************************

Host: hrgrimsl-XPS-13-9370

Timers On : Mon Sep 21 20:38:57 2020
Timers Off: Mon Sep 21 20:38:57 2020

Wall Time:        0.51 seconds

Total PK formation time     :      0.033u      0.000s      0.023w      1 calls
HF: Form H                  :      0.000u      0.000s      0.001w      1 calls
HF: Form S/X                :      0.000u      0.000s      0.000w      1 calls
HF: Guess                   :      0.000u      0.000s      0.000w      1 calls
HF: Form G                  :      0.000u      0.000s      0.000w      6 calls
JK: D                       :      0.000u      0.000s      0.000w      6 calls
JK: USO2AO                  :      0.000u      0.000s      0.000w      6 calls
JK: JK                      :      0.000u      0.000s      0.000w      6 calls
PK computes JK              :      0.000u      0.000s      0.000w      6 calls
JK: AO2USO                  :      0.000u      0.000s      0.000w      6 calls
HF: Form F                  :      0.000u      0.000s      0.000w      6 calls
HF: DIIS                    :      0.000u      0.000s      0.001w      6 calls
DIISManager::add_entry      :      0.000u      0.000s      0.000w      6 calls
DIISManager::extrapolate    :      0.000u      0.000s      0.000w      5 calls
bMatrix setup               :      0.000u      0.000s      0.000w      5 calls
bMatrix pseudoinverse       :      0.000u      0.000s      0.000w      5 calls
New vector                  :      0.000u      0.000s      0.000w      5 calls
HF: Form C                  :      0.000u      0.000s      0.000w      6 calls
HF: Form D                  :      0.000u      0.000s      0.000w      6 calls

-----------------------------------------------------------
Total PK formation time     :      0.033u      0.000s      0.023w      1 calls
HF: Form H                  :      0.000u      0.000s      0.001w      1 calls
HF: Form S/X                :      0.000u      0.000s      0.000w      1 calls
HF: Guess                   :      0.000u      0.000s      0.000w      1 calls
HF: Form G                  :      0.000u      0.000s      0.000w      6 calls
| JK: D                     :      0.000u      0.000s      0.000w      6 calls
| JK: USO2AO                :      0.000u      0.000s      0.000w      6 calls
| JK: JK                    :      0.000u      0.000s      0.000w      6 calls
| | PK computes JK          :      0.000u      0.000s      0.000w      6 calls
| JK: AO2USO                :      0.000u      0.000s      0.000w      6 calls
HF: Form F                  :      0.000u      0.000s      0.000w      6 calls
HF: DIIS                    :      0.000u      0.000s      0.001w      6 calls
| DIISManager::add_entry    :      0.000u      0.000s      0.000w      6 calls
| DIISManager::extrapolate  :      0.000u      0.000s      0.000w      5 calls
| | bMatrix setup           :      0.000u      0.000s      0.000w      5 calls
| | bMatrix pseudoinverse   :      0.000u      0.000s      0.000w      5 calls
| | New vector              :      0.000u      0.000s      0.000w      5 calls
HF: Form C                  :      0.000u      0.000s      0.000w      6 calls
HF: Form D                  :      0.000u      0.000s      0.000w      6 calls

***********************************************************

Host: hrgrimsl-XPS-13-9370

Timers On : Mon Sep 21 20:39:21 2020
Timers Off: Mon Sep 21 20:39:21 2020

Wall Time:        0.44 seconds

Total PK formation time     :      0.017u      0.000s      0.006w      1 calls
HF: Form H                  :      0.000u      0.000s      0.000w      1 calls
HF: Form S/X                :      0.000u      0.000s      0.000w      1 calls
HF: Guess                   :      0.000u      0.000s      0.000w      1 calls
HF: Form G                  :      0.000u      0.000s      0.000w      6 calls
JK: D                       :      0.000u      0.000s      0.000w      6 calls
JK: USO2AO                  :      0.000u      0.000s      0.000w      6 calls
JK: JK                      :      0.000u      0.000s      0.000w      6 calls
PK computes JK              :      0.000u      0.000s      0.000w      6 calls
JK: AO2USO                  :      0.000u      0.000s      0.000w      6 calls
HF: Form F                  :      0.000u      0.000s      0.000w      6 calls
HF: DIIS                    :      0.000u      0.000s      0.000w      6 calls
DIISManager::add_entry      :      0.000u      0.000s      0.000w      6 calls
DIISManager::extrapolate    :      0.000u      0.000s      0.000w      5 calls
bMatrix setup               :      0.000u      0.000s      0.000w      5 calls
bMatrix pseudoinverse       :      0.000u      0.000s      0.000w      5 calls
New vector                  :      0.000u      0.000s      0.000w      5 calls
HF: Form C                  :      0.000u      0.000s      0.000w      6 calls
HF: Form D                  :      0.000u      0.000s      0.000w      6 calls

-----------------------------------------------------------
Total PK formation time     :      0.017u      0.000s      0.006w      1 calls
HF: Form H                  :      0.000u      0.000s      0.000w      1 calls
HF: Form S/X                :      0.000u      0.000s      0.000w      1 calls
HF: Guess                   :      0.000u      0.000s      0.000w      1 calls
HF: Form G                  :      0.000u      0.000s      0.000w      6 calls
| JK: D                     :      0.000u      0.000s      0.000w      6 calls
| JK: USO2AO                :      0.000u      0.000s      0.000w      6 calls
| JK: JK                    :      0.000u      0.000s      0.000w      6 calls
| | PK computes JK          :      0.000u      0.000s      0.000w      6 calls
| JK: AO2USO                :      0.000u      0.000s      0.000w      6 calls
HF: Form F                  :      0.000u      0.000s      0.000w      6 calls
HF: DIIS                    :      0.000u      0.000s      0.000w      6 calls
| DIISManager::add_entry    :      0.000u      0.000s      0.000w      6 calls
| DIISManager::extrapolate  :      0.000u      0.000s      0.000w      5 calls
| | bMatrix setup           :      0.000u      0.000s      0.000w      5 calls
| | bMatrix pseudoinverse   :      0.000u      0.000s      0.000w      5 calls
| | New vector              :      0.000u      0.000s      0.000w      5 calls
HF: Form C                  :      0.000u      0.000s      0.000w      6 calls
HF: Form D                  :      0.000u      0.000s      0.000w      6 calls

***********************************************************

Host: hrgrimsl-XPS-13-9370

Timers On : Mon Sep 21 20:41:42 2020
Timers Off: Mon Sep 21 20:41:42 2020

Wall Time:        0.47 seconds

Total PK formation time     :      0.033u      0.000s      0.021w      1 calls
HF: Form H                  :      0.000u      0.017s      0.001w      1 calls
HF: Form S/X                :      0.000u      0.000s      0.000w      1 calls
HF: Guess                   :      0.000u      0.000s      0.000w      1 calls
HF: Form G                  :      0.000u      0.000s      0.000w      2 calls
JK: D                       :      0.000u      0.000s      0.000w      2 calls
JK: USO2AO                  :      0.000u      0.000s      0.000w      2 calls
JK: JK                      :      0.000u      0.000s      0.000w      2 calls
PK computes JK              :      0.000u      0.000s      0.000w      2 calls
JK: AO2USO                  :      0.000u      0.000s      0.000w      2 calls
HF: Form F                  :      0.000u      0.000s      0.000w      2 calls
HF: DIIS                    :      0.000u      0.000s      0.000w      2 calls
DIISManager::add_entry      :      0.000u      0.000s      0.000w      2 calls
DIISManager::extrapolate    :      0.000u      0.000s      0.000w      1 calls
bMatrix setup               :      0.000u      0.000s      0.000w      1 calls
bMatrix pseudoinverse       :      0.000u      0.000s      0.000w      1 calls
New vector                  :      0.000u      0.000s      0.000w      1 calls
HF: Form C                  :      0.000u      0.000s      0.000w      2 calls
HF: Form D                  :      0.000u      0.000s      0.000w      2 calls

-----------------------------------------------------------
Total PK formation time     :      0.033u      0.000s      0.021w      1 calls
HF: Form H                  :      0.000u      0.017s      0.001w      1 calls
HF: Form S/X                :      0.000u      0.000s      0.000w      1 calls
HF: Guess                   :      0.000u      0.000s      0.000w      1 calls
HF: Form G                  :      0.000u      0.000s      0.000w      2 calls
| JK: D                     :      0.000u      0.000s      0.000w      2 calls
| JK: USO2AO                :      0.000u      0.000s      0.000w      2 calls
| JK: JK                    :      0.000u      0.000s      0.000w      2 calls
| | PK computes JK          :      0.000u      0.000s      0.000w      2 calls
| JK: AO2USO                :      0.000u      0.000s      0.000w      2 calls
HF: Form F                  :      0.000u      0.000s      0.000w      2 calls
HF: DIIS                    :      0.000u      0.000s      0.000w      2 calls
| DIISManager::add_entry    :      0.000u      0.000s      0.000w      2 calls
| DIISManager::extrapolate  :      0.000u      0.000s      0.000w      1 calls
| | bMatrix setup           :      0.000u      0.000s      0.000w      1 calls
| | bMatrix pseudoinverse   :      0.000u      0.000s      0.000w      1 calls
| | New vector              :      0.000u      0.000s      0.000w      1 calls
HF: Form C                  :      0.000u      0.000s      0.000w      2 calls
HF: Form D                  :      0.000u      0.000s      0.000w      2 calls

***********************************************************

Host: hrgrimsl-XPS-13-9370

Timers On : Mon Sep 21 20:42:04 2020
Timers Off: Mon Sep 21 20:42:04 2020

Wall Time:        0.36 seconds


-----------------------------------------------------------

***********************************************************

Host: hrgrimsl-XPS-13-9370

Timers On : Mon Sep 21 20:42:12 2020
Timers Off: Mon Sep 21 20:42:13 2020

Wall Time:        0.48 seconds

Total PK formation time     :      0.033u      0.000s      0.020w      1 calls
HF: Form H                  :      0.000u      0.000s      0.001w      1 calls
HF: Form S/X                :      0.000u      0.000s      0.000w      1 calls
HF: Guess                   :      0.000u      0.000s      0.000w      1 calls
HF: Form G                  :      0.000u      0.000s      0.000w      6 calls
JK: D                       :      0.000u      0.000s      0.000w      6 calls
JK: USO2AO                  :      0.000u      0.000s      0.000w      6 calls
JK: JK                      :      0.000u      0.000s      0.000w      6 calls
PK computes JK              :      0.000u      0.000s      0.000w      6 calls
JK: AO2USO                  :      0.000u      0.000s      0.000w      6 calls
HF: Form F                  :      0.000u      0.000s      0.000w      6 calls
HF: DIIS                    :      0.000u      0.000s      0.001w      6 calls
DIISManager::add_entry      :      0.000u      0.000s      0.000w      6 calls
DIISManager::extrapolate    :      0.000u      0.000s      0.000w      5 calls
bMatrix setup               :      0.000u      0.000s      0.000w      5 calls
bMatrix pseudoinverse       :      0.000u      0.000s      0.000w      5 calls
New vector                  :      0.000u      0.000s      0.000w      5 calls
HF: Form C                  :      0.000u      0.000s      0.000w      6 calls
HF: Form D                  :      0.000u      0.000s      0.000w      6 calls

-----------------------------------------------------------
Total PK formation time     :      0.033u      0.000s      0.020w      1 calls
HF: Form H                  :      0.000u      0.000s      0.001w      1 calls
HF: Form S/X                :      0.000u      0.000s      0.000w      1 calls
HF: Guess                   :      0.000u      0.000s      0.000w      1 calls
HF: Form G                  :      0.000u      0.000s      0.000w      6 calls
| JK: D                     :      0.000u      0.000s      0.000w      6 calls
| JK: USO2AO                :      0.000u      0.000s      0.000w      6 calls
| JK: JK                    :      0.000u      0.000s      0.000w      6 calls
| | PK computes JK          :      0.000u      0.000s      0.000w      6 calls
| JK: AO2USO                :      0.000u      0.000s      0.000w      6 calls
HF: Form F                  :      0.000u      0.000s      0.000w      6 calls
HF: DIIS                    :      0.000u      0.000s      0.001w      6 calls
| DIISManager::add_entry    :      0.000u      0.000s      0.000w      6 calls
| DIISManager::extrapolate  :      0.000u      0.000s      0.000w      5 calls
| | bMatrix setup           :      0.000u      0.000s      0.000w      5 calls
| | bMatrix pseudoinverse   :      0.000u      0.000s      0.000w      5 calls
| | New vector              :      0.000u      0.000s      0.000w      5 calls
HF: Form C                  :      0.000u      0.000s      0.000w      6 calls
HF: Form D                  :      0.000u      0.000s      0.000w      6 calls

***********************************************************

Host: hrgrimsl-XPS-13-9370

Timers On : Mon Sep 21 20:43:39 2020
Timers Off: Mon Sep 21 20:43:40 2020

Wall Time:        0.79 seconds

Total PK formation time     :      0.017u      0.000s      0.010w      1 calls
HF: Form H                  :      0.000u      0.000s      0.001w      1 calls
HF: Form S/X                :      0.000u      0.000s      0.000w      1 calls
HF: Guess                   :      0.000u      0.000s      0.000w      1 calls
HF: Form G                  :      0.017u      0.000s      0.000w      6 calls
JK: D                       :      0.000u      0.000s      0.000w      6 calls
JK: USO2AO                  :      0.000u      0.000s      0.000w      6 calls
JK: JK                      :      0.000u      0.000s      0.000w      6 calls
PK computes JK              :      0.000u      0.000s      0.000w      6 calls
JK: AO2USO                  :      0.017u      0.000s      0.000w      6 calls
HF: Form F                  :      0.000u      0.000s      0.000w      6 calls
HF: DIIS                    :      0.000u      0.000s      0.001w      6 calls
DIISManager::add_entry      :      0.000u      0.000s      0.000w      6 calls
DIISManager::extrapolate    :      0.000u      0.000s      0.000w      5 calls
bMatrix setup               :      0.000u      0.000s      0.000w      5 calls
bMatrix pseudoinverse       :      0.000u      0.000s      0.000w      5 calls
New vector                  :      0.000u      0.000s      0.000w      5 calls
HF: Form C                  :      0.000u      0.000s      0.000w      6 calls
HF: Form D                  :      0.000u      0.000s      0.000w      6 calls

-----------------------------------------------------------
Total PK formation time     :      0.017u      0.000s      0.010w      1 calls
HF: Form H                  :      0.000u      0.000s      0.001w      1 calls
HF: Form S/X                :      0.000u      0.000s      0.000w      1 calls
HF: Guess                   :      0.000u      0.000s      0.000w      1 calls
HF: Form G                  :      0.017u      0.000s      0.000w      6 calls
| JK: D                     :      0.000u      0.000s      0.000w      6 calls
| JK: USO2AO                :      0.000u      0.000s      0.000w      6 calls
| JK: JK                    :      0.000u      0.000s      0.000w      6 calls
| | PK computes JK          :      0.000u      0.000s      0.000w      6 calls
| JK: AO2USO                :      0.017u      0.000s      0.000w      6 calls
HF: Form F                  :      0.000u      0.000s      0.000w      6 calls
HF: DIIS                    :      0.000u      0.000s      0.001w      6 calls
| DIISManager::add_entry    :      0.000u      0.000s      0.000w      6 calls
| DIISManager::extrapolate  :      0.000u      0.000s      0.000w      5 calls
| | bMatrix setup           :      0.000u      0.000s      0.000w      5 calls
| | bMatrix pseudoinverse   :      0.000u      0.000s      0.000w      5 calls
| | New vector              :      0.000u      0.000s      0.000w      5 calls
HF: Form C                  :      0.000u      0.000s      0.000w      6 calls
HF: Form D                  :      0.000u      0.000s      0.000w      6 calls

***********************************************************

Host: hrgrimsl-XPS-13-9370

Timers On : Mon Sep 21 20:43:50 2020
Timers Off: Mon Sep 21 20:43:51 2020

Wall Time:        0.82 seconds

Total PK formation time     :      0.017u      0.000s      0.011w      1 calls
HF: Form H                  :      0.000u      0.000s      0.001w      1 calls
HF: Form S/X                :      0.000u      0.000s      0.000w      1 calls
HF: Guess                   :      0.000u      0.000s      0.000w      1 calls
HF: Form G                  :      0.000u      0.000s      0.000w      6 calls
JK: D                       :      0.000u      0.000s      0.000w      6 calls
JK: USO2AO                  :      0.000u      0.000s      0.000w      6 calls
JK: JK                      :      0.000u      0.000s      0.000w      6 calls
PK computes JK              :      0.000u      0.000s      0.000w      6 calls
JK: AO2USO                  :      0.000u      0.000s      0.000w      6 calls
HF: Form F                  :      0.000u      0.000s      0.000w      6 calls
HF: DIIS                    :      0.000u      0.000s      0.001w      6 calls
DIISManager::add_entry      :      0.000u      0.000s      0.000w      6 calls
DIISManager::extrapolate    :      0.000u      0.000s      0.000w      5 calls
bMatrix setup               :      0.000u      0.000s      0.000w      5 calls
bMatrix pseudoinverse       :      0.000u      0.000s      0.000w      5 calls
New vector                  :      0.000u      0.000s      0.000w      5 calls
HF: Form C                  :      0.000u      0.000s      0.000w      6 calls
HF: Form D                  :      0.000u      0.000s      0.000w      6 calls

-----------------------------------------------------------
Total PK formation time     :      0.017u      0.000s      0.011w      1 calls
HF: Form H                  :      0.000u      0.000s      0.001w      1 calls
HF: Form S/X                :      0.000u      0.000s      0.000w      1 calls
HF: Guess                   :      0.000u      0.000s      0.000w      1 calls
HF: Form G                  :      0.000u      0.000s      0.000w      6 calls
| JK: D                     :      0.000u      0.000s      0.000w      6 calls
| JK: USO2AO                :      0.000u      0.000s      0.000w      6 calls
| JK: JK                    :      0.000u      0.000s      0.000w      6 calls
| | PK computes JK          :      0.000u      0.000s      0.000w      6 calls
| JK: AO2USO                :      0.000u      0.000s      0.000w      6 calls
HF: Form F                  :      0.000u      0.000s      0.000w      6 calls
HF: DIIS                    :      0.000u      0.000s      0.001w      6 calls
| DIISManager::add_entry    :      0.000u      0.000s      0.000w      6 calls
| DIISManager::extrapolate  :      0.000u      0.000s      0.000w      5 calls
| | bMatrix setup           :      0.000u      0.000s      0.000w      5 calls
| | bMatrix pseudoinverse   :      0.000u      0.000s      0.000w      5 calls
| | New vector              :      0.000u      0.000s      0.000w      5 calls
HF: Form C                  :      0.000u      0.000s      0.000w      6 calls
HF: Form D                  :      0.000u      0.000s      0.000w      6 calls

***********************************************************

Host: hrgrimsl-XPS-13-9370

Timers On : Mon Sep 21 20:45:01 2020
Timers Off: Mon Sep 21 20:45:02 2020

Wall Time:        0.45 seconds

Total PK formation time     :      0.017u      0.000s      0.007w      1 calls
HF: Form H                  :      0.000u      0.000s      0.002w      1 calls
HF: Form S/X                :      0.000u      0.000s      0.000w      1 calls
HF: Guess                   :      0.000u      0.000s      0.000w      1 calls
HF: Form G                  :      0.000u      0.000s      0.000w      6 calls
JK: D                       :      0.000u      0.000s      0.000w      6 calls
JK: USO2AO                  :      0.000u      0.000s      0.000w      6 calls
[...]
HF: Form G                  :      0.017u      0.000s      0.008w    360 calls
JK: D                       :      0.000u      0.000s      0.001w    360 calls
JK: USO2AO                  :      0.000u      0.000s      0.001w    360 calls
JK: JK                      :      0.000u      0.000s      0.003w    360 calls
PK computes JK              :      0.000u      0.000s      0.002w    360 calls
JK: AO2USO                  :      0.000u      0.000s      0.000w    360 calls
HF: Form F                  :      0.000u      0.000s      0.001w    360 calls
HF: DIIS                    :      0.083u      0.000s      0.027w    360 calls
DIISManager::add_entry      :      0.000u      0.000s      0.010w    318 calls
DIISManager::extrapolate    :      0.067u      0.000s      0.013w    276 calls
bMatrix setup               :      0.033u      0.000s      0.004w    276 calls
bMatrix pseudoinverse       :      0.017u      0.000s      0.004w    276 calls
New vector                  :      0.017u      0.000s      0.003w    276 calls
HF: Form C                  :      0.000u      0.000s      0.006w    360 calls
HF: Form D                  :      0.000u      0.000s      0.001w    360 calls

-----------------------------------------------------------
Total PK formation time     :      0.800u      0.017s      0.493w     42 calls
HF: Form H                  :      0.017u      0.000s      0.021w     42 calls
HF: Form S/X                :      0.017u      0.000s      0.003w     42 calls
HF: Guess                   :      3.317u      0.017s      2.009w     42 calls
| SAD Guess                 :      3.183u      0.017s      1.924w     42 calls
HF: Form G                  :      0.017u      0.000s      0.008w    360 calls
| JK: D                     :      0.000u      0.000s      0.001w    360 calls
| JK: USO2AO                :      0.000u      0.000s      0.001w    360 calls
| JK: JK                    :      0.000u      0.000s      0.003w    360 calls
| | PK computes JK          :      0.000u      0.000s      0.002w    360 calls
| JK: AO2USO                :      0.000u      0.000s      0.000w    360 calls
HF: Form F                  :      0.000u      0.000s      0.001w    360 calls
HF: DIIS                    :      0.083u      0.000s      0.027w    360 calls
| DIISManager::add_entry    :      0.000u      0.000s      0.010w    318 calls
| DIISManager::extrapolate  :      0.067u      0.000s      0.013w    276 calls
| | bMatrix setup           :      0.033u      0.000s      0.004w    276 calls
| | bMatrix pseudoinverse   :      0.017u      0.000s      0.004w    276 calls
| | New vector              :      0.017u      0.000s      0.003w    276 calls
HF: Form C                  :      0.000u      0.000s      0.006w    360 calls
HF: Form D                  :      0.000u      0.000s      0.001w    360 calls

***********************************************************

Host: hrgrimsl-XPS-13-9370

Timers On : Wed Oct  7 04:44:44 2020
Timers Off: Wed Oct  7 04:44:46 2020

Wall Time:        1.49 seconds

Total PK formation time     :      0.033u      0.000s      0.017w      2 calls
HF: Form H                  :      0.000u      0.000s      0.001w      2 calls
HF: Form S/X                :      0.000u      0.000s      0.000w      2 calls
HF: Guess                   :      0.067u      0.000s      0.048w      2 calls
SAD Guess                   :      0.067u      0.000s      0.044w      2 calls
HF: Form G                  :      0.000u      0.000s      0.000w      6 calls
JK: D                       :      0.000u      0.000s      0.000w      6 calls
JK: USO2AO                  :      0.000u      0.000s      0.000w      6 calls
JK: JK                      :      0.000u      0.000s      0.000w      6 calls
PK computes JK              :      0.000u      0.000s      0.000w      6 calls
JK: AO2USO                  :      0.000u      0.000s      0.000w      6 calls
HF: Form F                  :      0.000u      0.000s      0.000w      6 calls
HF: DIIS                    :      0.000u      0.000s      0.000w      6 calls
DIISManager::add_entry      :      0.000u      0.000s      0.000w      4 calls
DIISManager::extrapolate    :      0.000u      0.000s      0.000w      2 calls
bMatrix setup               :      0.000u      0.000s      0.000w      2 calls
bMatrix pseudoinverse       :      0.000u      0.000s      0.000w      2 calls
New vector                  :      0.000u      0.000s      0.000w      2 calls
HF: Form C                  :      0.000u      0.000s      0.000w      6 calls
HF: Form D                  :      0.000u      0.000s      0.000w      6 calls

-----------------------------------------------------------
Total PK formation time     :      0.033u      0.000s      0.017w      2 calls
HF: Form H                  :      0.000u      0.000s      0.001w      2 calls
HF: Form S/X                :      0.000u      0.000s      0.000w      2 calls
HF: Guess                   :      0.067u      0.000s      0.048w      2 calls
| SAD Guess                 :      0.067u      0.000s      0.044w      2 calls
HF: Form G                  :      0.000u      0.000s      0.000w      6 calls
| JK: D                     :      0.000u      0.000s      0.000w      6 calls
| JK: USO2AO                :      0.000u      0.000s      0.000w      6 calls
| JK: JK                    :      0.000u      0.000s      0.000w      6 calls
| | PK computes JK          :      0.000u      0.000s      0.000w      6 calls
| JK: AO2USO                :      0.000u      0.000s      0.000w      6 calls
HF: Form F                  :      0.000u      0.000s      0.000w      6 calls
HF: DIIS                    :      0.000u      0.000s      0.000w      6 calls
| DIISManager::add_entry    :      0.000u      0.000s      0.000w      4 calls
| DIISManager::extrapolate  :      0.000u      0.000s      0.000w      2 calls
| | bMatrix setup           :      0.000u      0.000s      0.000w      2 calls
| | bMatrix pseudoinverse   :      0.000u      0.000s      0.000w      2 calls
| | New vector              :      0.000u      0.000s      0.000w      2 calls
HF: Form C                  :      0.000u      0.000s      0.000w      6 calls
HF: Form D                  :      0.000u      0.000s      0.000w      6 calls

***********************************************************

Host: hrgrimsl-XPS-13-9370

Timers On : Wed Oct  7 04:45:06 2020
Timers Off: Wed Oct  7 04:45:08 2020

Wall Time:        1.49 seconds

Total PK formation time     :      0.033u      0.000s      0.017w      2 calls
HF: Form H                  :      0.000u      0.000s      0.001w      2 calls
HF: Form S/X                :      0.000u      0.000s      0.000w      2 calls
HF: Guess                   :      0.067u      0.000s      0.046w      2 calls
SAD Guess                   :      0.067u      0.000s      0.042w      2 calls
HF: Form G                  :      0.000u      0.000s      0.000w      6 calls
JK: D                       :      0.000u      0.000s      0.000w      6 calls
JK: USO2AO                  :      0.000u      0.000s      0.000w      6 calls
JK: JK                      :      0.000u      0.000s      0.000w      6 calls
PK computes JK              :      0.000u      0.000s      0.000w      6 calls
JK: AO2USO                  :      0.000u      0.000s      0.000w      6 calls
HF: Form F                  :      0.000u      0.000s      0.000w      6 calls
HF: DIIS                    :      0.000u      0.000s      0.000w      6 calls
DIISManager::add_entry      :      0.000u      0.000s      0.000w      4 calls
DIISManager::extrapolate    :      0.000u      0.000s      0.000w      2 calls
bMatrix setup               :      0.000u      0.000s      0.000w      2 calls
bMatrix pseudoinverse       :      0.000u      0.000s      0.000w      2 calls
New vector                  :      0.000u      0.000s      0.000w      2 calls
HF: Form C                  :      0.000u      0.000s      0.000w      6 calls
HF: Form D                  :      0.000u      0.000s      0.000w      6 calls

-----------------------------------------------------------
Total PK formation time     :      0.033u      0.000s      0.017w      2 calls
HF: Form H                  :      0.000u      0.000s      0.001w      2 calls
HF: Form S/X                :      0.000u      0.000s      0.000w      2 calls
HF: Guess                   :      0.067u      0.000s      0.046w      2 calls
| SAD Guess                 :      0.067u      0.000s      0.042w      2 calls
HF: Form G                  :      0.000u      0.000s      0.000w      6 calls
| JK: D                     :      0.000u      0.000s      0.000w      6 calls
| JK: USO2AO                :      0.000u      0.000s      0.000w      6 calls
| JK: JK                    :      0.000u      0.000s      0.000w      6 calls
| | PK computes JK          :      0.000u      0.000s      0.000w      6 calls
| JK: AO2USO                :      0.000u      0.000s      0.000w      6 calls
HF: Form F                  :      0.000u      0.000s      0.000w      6 calls
HF: DIIS                    :      0.000u      0.000s      0.000w      6 calls
| DIISManager::add_entry    :      0.000u      0.000s      0.000w      4 calls
| DIISManager::extrapolate  :      0.000u      0.000s      0.000w      2 calls
| | bMatrix setup           :      0.000u      0.000s      0.000w      2 calls
| | bMatrix pseudoinverse   :      0.000u      0.000s      0.000w      2 calls
| | New vector              :      0.000u      0.000s      0.000w      2 calls
HF: Form C                  :      0.000u      0.000s      0.000w      6 calls
HF: Form D                  :      0.000u      0.000s      0.000w      6 calls

***********************************************************

Host: hrgrimsl-XPS-13-9370

Timers On : Wed Oct  7 04:47:08 2020
Timers Off: Wed Oct  7 04:47:26 2020

Wall Time:       18.32 seconds

Total PK formation time     :      0.417u      0.000s      0.299w     37 calls
HF: Form H                  :      0.083u      0.000s      0.015w     37 calls
HF: Form S/X                :      0.000u      0.000s      0.002w     37 calls
HF: Guess                   :      1.383u      0.033s      0.848w     37 calls
SAD Guess                   :      1.250u      0.000s      0.773w     37 calls
HF: Form G                  :      0.000u      0.000s      0.003w    111 calls
JK: D                       :      0.000u      0.000s      0.000w    111 calls
JK: USO2AO                  :      0.000u      0.000s      0.000w    111 calls
JK: JK                      :      0.000u      0.000s      0.001w    111 calls
PK computes JK              :      0.000u      0.000s      0.001w    111 calls
JK: AO2USO                  :      0.000u      0.000s      0.000w    111 calls
HF: Form F                  :      0.000u      0.000s      0.000w    111 calls
HF: DIIS                    :      0.000u      0.000s      0.007w    111 calls
DIISManager::add_entry      :      0.000u      0.000s      0.005w     74 calls
DIISManager::extrapolate    :      0.000u      0.000s      0.001w     37 calls
bMatrix setup               :      0.000u      0.000s      0.000w     37 calls
bMatrix pseudoinverse       :      0.000u      0.000s      0.000w     37 calls
New vector                  :      0.000u      0.000s      0.000w     37 calls
HF: Form C                  :      0.000u      0.000s      0.002w    111 calls
HF: Form D                  :      0.000u      0.000s      0.000w    111 calls

-----------------------------------------------------------
Total PK formation time     :      0.417u      0.000s      0.299w     37 calls
HF: Form H                  :      0.083u      0.000s      0.015w     37 calls
HF: Form S/X                :      0.000u      0.000s      0.002w     37 calls
HF: Guess                   :      1.383u      0.033s      0.848w     37 calls
| SAD Guess                 :      1.250u      0.000s      0.773w     37 calls
HF: Form G                  :      0.000u      0.000s      0.003w    111 calls
| JK: D                     :      0.000u      0.000s      0.000w    111 calls
| JK: USO2AO                :      0.000u      0.000s      0.000w    111 calls
| JK: JK                    :      0.000u      0.000s      0.001w    111 calls
| | PK computes JK          :      0.000u      0.000s      0.001w    111 calls
| JK: AO2USO                :      0.000u      0.000s      0.000w    111 calls
HF: Form F                  :      0.000u      0.000s      0.000w    111 calls
HF: DIIS                    :      0.000u      0.000s      0.007w    111 calls
| DIISManager::add_entry    :      0.000u      0.000s      0.005w     74 calls
| DIISManager::extrapolate  :      0.000u      0.000s      0.001w     37 calls
| | bMatrix setup           :      0.000u      0.000s      0.000w     37 calls
| | bMatrix pseudoinverse   :      0.000u      0.000s      0.000w     37 calls
| | New vector              :      0.000u      0.000s      0.000w     37 calls
HF: Form C                  :      0.000u      0.000s      0.002w    111 calls
HF: Form D                  :      0.000u      0.000s      0.000w    111 calls

***********************************************************

Host: hrgrimsl-XPS-13-9370

Timers On : Wed Oct  7 08:14:35 2020
Timers Off: Wed Oct  7 08:14:37 2020

Wall Time:        1.95 seconds

Total PK formation time     :      0.017u      0.000s      0.010w      1 calls
HF: Form H                  :      0.000u      0.000s      0.000w      1 calls
HF: Form S/X                :      0.000u      0.000s      0.000w      1 calls
HF: Guess                   :      0.067u      0.000s      0.041w      1 calls
SAD Guess                   :      0.067u      0.000s      0.039w      1 calls
HF: Form G                  :      0.000u      0.000s      0.000w      8 calls
JK: D                       :      0.000u      0.000s      0.000w      8 calls
JK: USO2AO                  :      0.000u      0.000s      0.000w      8 calls
JK: JK                      :      0.000u      0.000s      0.000w      8 calls
PK computes JK              :      0.000u      0.000s      0.000w      8 calls
JK: AO2USO                  :      0.000u      0.000s      0.000w      8 calls
HF: Form F                  :      0.000u      0.000s      0.000w      8 calls
HF: DIIS                    :      0.000u      0.000s      0.000w      8 calls
DIISManager::add_entry      :      0.000u      0.000s      0.000w      7 calls
DIISManager::extrapolate    :      0.000u      0.000s      0.000w      6 calls
bMatrix setup               :      0.000u      0.000s      0.000w      6 calls
bMatrix pseudoinverse       :      0.000u      0.000s      0.000w      6 calls
New vector                  :      0.000u      0.000s      0.000w      6 calls
HF: Form C                  :      0.000u      0.000s      0.000w      8 calls
HF: Form D                  :      0.000u      0.000s      0.000w      8 calls

-----------------------------------------------------------
Total PK formation time     :      0.017u      0.000s      0.010w      1 calls
HF: Form H                  :      0.000u      0.000s      0.000w      1 calls
HF: Form S/X                :      0.000u      0.000s      0.000w      1 calls
HF: Guess                   :      0.067u      0.000s      0.041w      1 calls
| SAD Guess                 :      0.067u      0.000s      0.039w      1 calls
HF: Form G                  :      0.000u      0.000s      0.000w      8 calls
| JK: D                     :      0.000u      0.000s      0.000w      8 calls
| JK: USO2AO                :      0.000u      0.000s      0.000w      8 calls
| JK: JK                    :      0.000u      0.000s      0.000w      8 calls
| | PK computes JK          :      0.000u      0.000s      0.000w      8 calls
| JK: AO2USO                :      0.000u      0.000s      0.000w      8 calls
HF: Form F                  :      0.000u      0.000s      0.000w      8 calls
HF: DIIS                    :      0.000u      0.000s      0.000w      8 calls
| DIISManager::add_entry    :      0.000u      0.000s      0.000w      7 calls
| DIISManager::extrapolate  :      0.000u      0.000s      0.000w      6 calls
| | bMatrix setup           :      0.000u      0.000s      0.000w      6 calls
| | bMatrix pseudoinverse   :      0.000u      0.000s      0.000w      6 calls
| | New vector              :      0.000u      0.000s      0.000w      6 calls
HF: Form C                  :      0.000u      0.000s      0.000w      8 calls
HF: Form D                  :      0.000u      0.000s      0.000w      8 calls

***********************************************************

Host: hrgrimsl-XPS-13-9370

Timers On : Wed Oct  7 08:42:02 2020
Timers Off: Wed Oct  7 08:42:16 2020

Wall Time:       13.90 seconds

Total PK formation time     :      0.017u      0.000s      0.012w      1 calls
HF: Form H                  :      0.000u      0.000s      0.000w      1 calls
HF: Form S/X                :      0.000u      0.000s      0.000w      1 calls
HF: Guess                   :      0.083u      0.000s      0.048w      1 calls
SAD Guess                   :      0.067u      0.000s      0.046w      1 calls
HF: Form G                  :      0.000u      0.000s      0.000w      7 calls
JK: D                       :      0.000u      0.000s      0.000w      7 calls
JK: USO2AO                  :      0.000u      0.000s      0.000w      7 calls
JK: JK                      :      0.000u      0.000s      0.000w      7 calls
PK computes JK              :      0.000u      0.000s      0.000w      7 calls
JK: AO2USO                  :      0.000u      0.000s      0.000w      7 calls
HF: Form F                  :      0.000u      0.000s      0.000w      7 calls
HF: DIIS                    :      0.000u      0.000s      0.000w      7 calls
DIISManager::add_entry      :      0.000u      0.000s      0.000w      6 calls
DIISManager::extrapolate    :      0.000u      0.000s      0.000w      5 calls
bMatrix setup               :      0.000u      0.000s      0.000w      5 calls
bMatrix pseudoinverse       :      0.000u      0.000s      0.000w      5 calls
New vector                  :      0.000u      0.000s      0.000w      5 calls
HF: Form C                  :      0.000u      0.000s      0.000w      7 calls
HF: Form D                  :      0.000u      0.000s      0.000w      7 calls

-----------------------------------------------------------
Total PK formation time     :      0.017u      0.000s      0.012w      1 calls
HF: Form H                  :      0.000u      0.000s      0.000w      1 calls
HF: Form S/X                :      0.000u      0.000s      0.000w      1 calls
HF: Guess                   :      0.083u      0.000s      0.048w      1 calls
| SAD Guess                 :      0.067u      0.000s      0.046w      1 calls
HF: Form G                  :      0.000u      0.000s      0.000w      7 calls
| JK: D                     :      0.000u      0.000s      0.000w      7 calls
| JK: USO2AO                :      0.000u      0.000s      0.000w      7 calls
| JK: JK                    :      0.000u      0.000s      0.000w      7 calls
| | PK computes JK          :      0.000u      0.000s      0.000w      7 calls
| JK: AO2USO                :      0.000u      0.000s      0.000w      7 calls
HF: Form F                  :      0.000u      0.000s      0.000w      7 calls
HF: DIIS                    :      0.000u      0.000s      0.000w      7 calls
| DIISManager::add_entry    :      0.000u      0.000s      0.000w      6 calls
| DIISManager::extrapolate  :      0.000u      0.000s      0.000w      5 calls
| | bMatrix setup           :      0.000u      0.000s      0.000w      5 calls
| | bMatrix pseudoinverse   :      0.000u      0.000s      0.000w      5 calls
| | New vector              :      0.000u      0.000s      0.000w      5 calls
HF: Form C                  :      0.000u      0.000s      0.000w      7 calls
HF: Form D                  :      0.000u      0.000s      0.000w      7 calls

***********************************************************
