
Host: hrgrimsl-XPS-13-9370

Timers On : Mon Sep 21 19:11:55 2020
Timers Off: Mon Sep 21 19:11:55 2020

Wall Time:        0.78 seconds

Total PK formation time     :      0.017u      0.000s      0.010w      1 calls
HF: Form H                  :      0.000u      0.000s      0.001w      1 calls
HF: Form S/X                :      0.000u      0.000s      0.000w      1 calls
HF: Guess                   :      0.000u      0.000s      0.000w      1 calls
HF: Form G                  :      0.000u      0.000s      0.000w      2 calls
JK: D                       :      0.000u      0.000s      0.000w      2 calls
JK: USO2AO                  :      0.000u      0.000s      0.000w      2 calls
JK: JK                      :      0.000u      0.000s      0.000w      2 calls
PK computes JK              :      0.000u      0.000s      0.000w      2 calls
JK: AO2USO                  :      0.000u      0.000s      0.000w      2 calls
HF: Form F                  :      0.000u      0.000s      0.000w      2 calls
HF: DIIS                    :      0.000u      0.000s      0.001w      2 calls
DIISManager::add_entry      :      0.000u      0.000s      0.000w      2 calls
DIISManager::extrapolate    :      0.000u      0.000s      0.000w      1 calls
bMatrix setup               :      0.000u      0.000s      0.000w      1 calls
bMatrix pseudoinverse       :      0.000u      0.000s      0.000w      1 calls
New vector                  :      0.000u      0.000s      0.000w      1 calls
HF: Form C                  :      0.000u      0.000s      0.000w      2 calls
HF: Form D                  :      0.000u      0.000s      0.000w      2 calls

-----------------------------------------------------------
Total PK formation time     :      0.017u      0.000s      0.010w      1 calls
HF: Form H                  :      0.000u      0.000s      0.001w      1 calls
HF: Form S/X                :      0.000u      0.000s      0.000w      1 calls
HF: Guess                   :      0.000u      0.000s      0.000w      1 calls
HF: Form G                  :      0.000u      0.000s      0.000w      2 calls
| JK: D                     :      0.000u      0.000s      0.000w      2 calls
| JK: USO2AO                :      0.000u      0.000s      0.000w      2 calls
| JK: JK                    :      0.000u      0.000s      0.000w      2 calls
| | PK computes JK          :      0.000u      0.000s      0.000w      2 calls
| JK: AO2USO                :      0.000u      0.000s      0.000w      2 calls
HF: Form F                  :      0.000u      0.000s      0.000w      2 calls
HF: DIIS                    :      0.000u      0.000s      0.001w      2 calls
| DIISManager::add_entry    :      0.000u      0.000s      0.000w      2 calls
| DIISManager::extrapolate  :      0.000u      0.000s      0.000w      1 calls
| | bMatrix setup           :      0.000u      0.000s      0.000w      1 calls
| | bMatrix pseudoinverse   :      0.000u      0.000s      0.000w      1 calls
| | New vector              :      0.000u      0.000s      0.000w      1 calls
HF: Form C                  :      0.000u      0.000s      0.000w      2 calls
HF: Form D                  :      0.000u      0.000s      0.000w      2 calls

***********************************************************

Host: hrgrimsl-XPS-13-9370

Timers On : Mon Sep 21 19:12:18 2020
Timers Off: Mon Sep 21 19:12:19 2020

Wall Time:        0.83 seconds

Total PK formation time     :      0.017u      0.000s      0.011w      1 calls
HF: Form H                  :      0.000u      0.000s      0.001w      1 calls
HF: Form S/X                :      0.000u      0.000s      0.000w      1 calls
HF: Guess                   :      0.000u      0.000s      0.000w      1 calls
HF: Form G                  :      0.000u      0.000s      0.000w      2 calls
JK: D                       :      0.000u      0.000s      0.000w      2 calls
JK: USO2AO                  :      0.000u      0.000s      0.000w      2 calls
JK: JK                      :      0.000u      0.000s      0.000w      2 calls
PK computes JK              :      0.000u      0.000s      0.000w      2 calls
JK: AO2USO                  :      0.000u      0.000s      0.000w      2 calls
HF: Form F                  :      0.000u      0.000s      0.000w      2 calls
HF: DIIS                    :      0.000u      0.000s      0.000w      2 calls
DIISManager::add_entry      :      0.000u      0.000s      0.000w      2 calls
DIISManager::extrapolate    :      0.000u      0.000s      0.000w      1 calls
bMatrix setup               :      0.000u      0.000s      0.000w      1 calls
bMatrix pseudoinverse       :      0.000u      0.000s      0.000w      1 calls
New vector                  :      0.000u      0.000s      0.000w      1 calls
HF: Form C                  :      0.000u      0.000s      0.000w      2 calls
HF: Form D                  :      0.000u      0.000s      0.000w      2 calls

-----------------------------------------------------------
Total PK formation time     :      0.017u      0.000s      0.011w      1 calls
HF: Form H                  :      0.000u      0.000s      0.001w      1 calls
HF: Form S/X                :      0.000u      0.000s      0.000w      1 calls
HF: Guess                   :      0.000u      0.000s      0.000w      1 calls
HF: Form G                  :      0.000u      0.000s      0.000w      2 calls
| JK: D                     :      0.000u      0.000s      0.000w      2 calls
| JK: USO2AO                :      0.000u      0.000s      0.000w      2 calls
| JK: JK                    :      0.000u      0.000s      0.000w      2 calls
| | PK computes JK          :      0.000u      0.000s      0.000w      2 calls
| JK: AO2USO                :      0.000u      0.000s      0.000w      2 calls
HF: Form F                  :      0.000u      0.000s      0.000w      2 calls
HF: DIIS                    :      0.000u      0.000s      0.000w      2 calls
| DIISManager::add_entry    :      0.000u      0.000s      0.000w      2 calls
| DIISManager::extrapolate  :      0.000u      0.000s      0.000w      1 calls
| | bMatrix setup           :      0.000u      0.000s      0.000w      1 calls
| | bMatrix pseudoinverse   :      0.000u      0.000s      0.000w      1 calls
| | New vector              :      0.000u      0.000s      0.000w      1 calls
HF: Form C                  :      0.000u      0.000s      0.000w      2 calls
HF: Form D                  :      0.000u      0.000s      0.000w      2 calls

***********************************************************

Host: hrgrimsl-XPS-13-9370

Timers On : Mon Sep 21 19:16:10 2020
Timers Off: Mon Sep 21 19:16:10 2020

Wall Time:        0.33 seconds


-----------------------------------------------------------

***********************************************************

Host: hrgrimsl-XPS-13-9370

Timers On : Mon Sep 21 19:18:07 2020
Timers Off: Mon Sep 21 19:18:08 2020

Wall Time:        0.35 seconds


-----------------------------------------------------------

***********************************************************

Host: hrgrimsl-XPS-13-9370

Timers On : Mon Sep 21 19:19:59 2020
Timers Off: Mon Sep 21 19:19:59 2020

Wall Time:        0.44 seconds

Total PK formation time     :      0.000u      0.000s      0.007w      1 calls
HF: Form H                  :      0.000u      0.000s      0.000w      1 calls
HF: Form S/X                :      0.000u      0.000s      0.000w      1 calls
HF: Guess                   :      0.000u      0.000s      0.000w      1 calls
HF: Form G                  :      0.000u      0.000s      0.000w      2 calls
JK: D                       :      0.000u      0.000s      0.000w      2 calls
JK: USO2AO                  :      0.000u      0.000s      0.000w      2 calls
JK: JK                      :      0.000u      0.000s      0.000w      2 calls
PK computes JK              :      0.000u      0.000s      0.000w      2 calls
JK: AO2USO                  :      0.000u      0.000s      0.000w      2 calls
HF: Form F                  :      0.000u      0.000s      0.000w      2 calls
HF: DIIS                    :      0.000u      0.000s      0.000w      2 calls
DIISManager::add_entry      :      0.000u      0.000s      0.000w      2 calls
DIISManager::extrapolate    :      0.000u      0.000s      0.000w      1 calls
bMatrix setup               :      0.000u      0.000s      0.000w      1 calls
bMatrix pseudoinverse       :      0.000u      0.000s      0.000w      1 calls
New vector                  :      0.000u      0.000s      0.000w      1 calls
HF: Form C                  :      0.000u      0.000s      0.000w      2 calls
HF: Form D                  :      0.000u      0.000s      0.000w      2 calls

-----------------------------------------------------------
Total PK formation time     :      0.000u      0.000s      0.007w      1 calls
HF: Form H                  :      0.000u      0.000s      0.000w      1 calls
HF: Form S/X                :      0.000u      0.000s      0.000w      1 calls
HF: Guess                   :      0.000u      0.000s      0.000w      1 calls
HF: Form G                  :      0.000u      0.000s      0.000w      2 calls
| JK: D                     :      0.000u      0.000s      0.000w      2 calls
| JK: USO2AO                :      0.000u      0.000s      0.000w      2 calls
| JK: JK                    :      0.000u      0.000s      0.000w      2 calls
| | PK computes JK          :      0.000u      0.000s      0.000w      2 calls
| JK: AO2USO                :      0.000u      0.000s      0.000w      2 calls
HF: Form F                  :      0.000u      0.000s      0.000w      2 calls
HF: DIIS                    :      0.000u      0.000s      0.000w      2 calls
| DIISManager::add_entry    :      0.000u      0.000s      0.000w      2 calls
| DIISManager::extrapolate  :      0.000u      0.000s      0.000w      1 calls
| | bMatrix setup           :      0.000u      0.000s      0.000w      1 calls
| | bMatrix pseudoinverse   :      0.000u      0.000s      0.000w      1 calls
| | New vector              :      0.000u      0.000s      0.000w      1 calls
HF: Form C                  :      0.000u      0.000s      0.000w      2 calls
HF: Form D                  :      0.000u      0.000s      0.000w      2 calls

***********************************************************

Host: hrgrimsl-XPS-13-9370

Timers On : Mon Sep 21 19:20:37 2020
Timers Off: Mon Sep 21 19:20:38 2020

Wall Time:        0.47 seconds

Total PK formation time     :      0.017u      0.000s      0.017w      1 calls
HF: Form H                  :      0.000u      0.000s      0.001w      1 calls
HF: Form S/X                :      0.000u      0.000s      0.000w      1 calls
HF: Guess                   :      0.000u      0.000s      0.000w      1 calls
HF: Form G                  :      0.000u      0.000s      0.000w      2 calls
JK: D                       :      0.000u      0.000s      0.000w      2 calls
JK: USO2AO                  :      0.000u      0.000s      0.000w      2 calls
JK: JK                      :      0.000u      0.000s      0.000w      2 calls
PK computes JK              :      0.000u      0.000s      0.000w      2 calls
JK: AO2USO                  :      0.000u      0.000s      0.000w      2 calls
HF: Form F                  :      0.000u      0.000s      0.000w      2 calls
HF: DIIS                    :      0.000u      0.000s      0.000w      2 calls
DIISManager::add_entry      :      0.000u      0.000s      0.000w      2 calls
DIISManager::extrapolate    :      0.000u      0.000s      0.000w      1 calls
bMatrix setup               :      0.000u      0.000s      0.000w      1 calls
bMatrix pseudoinverse       :      0.000u      0.000s      0.000w      1 calls
New vector                  :      0.000u      0.000s      0.000w      1 calls
HF: Form C                  :      0.000u      0.000s      0.000w      2 calls
HF: Form D                  :      0.000u      0.000s      0.000w      2 calls

-----------------------------------------------------------
Total PK formation time     :      0.017u      0.000s      0.017w      1 calls
HF: Form H                  :      0.000u      0.000s      0.001w      1 calls
HF: Form S/X                :      0.000u      0.000s      0.000w      1 calls
HF: Guess                   :      0.000u      0.000s      0.000w      1 calls
HF: Form G                  :      0.000u      0.000s      0.000w      2 calls
| JK: D                     :      0.000u      0.000s      0.000w      2 calls
| JK: USO2AO                :      0.000u      0.000s      0.000w      2 calls
| JK: JK                    :      0.000u      0.000s      0.000w      2 calls
| | PK computes JK          :      0.000u      0.000s      0.000w      2 calls
| JK: AO2USO                :      0.000u      0.000s      0.000w      2 calls
HF: Form F                  :      0.000u      0.000s      0.000w      2 calls
HF: DIIS                    :      0.000u      0.000s      0.000w      2 calls
| DIISManager::add_entry    :      0.000u      0.000s      0.000w      2 calls
| DIISManager::extrapolate  :      0.000u      0.000s      0.000w      1 calls
| | bMatrix setup           :      0.000u      0.000s      0.000w      1 calls
| | bMatrix pseudoinverse   :      0.000u      0.000s      0.000w      1 calls
| | New vector              :      0.000u      0.000s      0.000w      1 calls
HF: Form C                  :      0.000u      0.000s      0.000w      2 calls
HF: Form D                  :      0.000u      0.000s      0.000w      2 calls

***********************************************************

Host: hrgrimsl-XPS-13-9370

Timers On : Mon Sep 21 19:21:18 2020
Timers Off: Mon Sep 21 19:21:18 2020

Wall Time:        0.45 seconds

Total PK formation time     :      0.000u      0.000s      0.006w      1 calls
HF: Form H                  :      0.000u      0.000s      0.000w      1 calls
HF: Form S/X                :      0.000u      0.000s      0.000w      1 calls
HF: Guess                   :      0.000u      0.000s      0.000w      1 calls
HF: Form G                  :      0.000u      0.000s      0.000w      2 calls
JK: D                       :      0.000u      0.000s      0.000w      2 calls
JK: USO2AO                  :      0.000u      0.000s      0.000w      2 calls
JK: JK                      :      0.000u      0.000s      0.000w      2 calls
PK computes JK              :      0.000u      0.000s      0.000w      2 calls
JK: AO2USO                  :      0.000u      0.000s      0.000w      2 calls
HF: Form F                  :      0.000u      0.000s      0.000w      2 calls
HF: DIIS                    :      0.000u      0.000s      0.000w      2 calls
DIISManager::add_entry      :      0.000u      0.000s      0.000w      2 calls
DIISManager::extrapolate    :      0.000u      0.000s      0.000w      1 calls
bMatrix setup               :      0.000u      0.000s      0.000w      1 calls
bMatrix pseudoinverse       :      0.000u      0.000s      0.000w      1 calls
New vector                  :      0.000u      0.000s      0.000w      1 calls
HF: Form C                  :      0.000u      0.000s      0.000w      2 calls
HF: Form D                  :      0.000u      0.000s      0.000w      2 calls

-----------------------------------------------------------
Total PK formation time     :      0.000u      0.000s      0.006w      1 calls
HF: Form H                  :      0.000u      0.000s      0.000w      1 calls
HF: Form S/X                :      0.000u      0.000s      0.000w      1 calls
HF: Guess                   :      0.000u      0.000s      0.000w      1 calls
HF: Form G                  :      0.000u      0.000s      0.000w      2 calls
| JK: D                     :      0.000u      0.000s      0.000w      2 calls
| JK: USO2AO                :      0.000u      0.000s      0.000w      2 calls
| JK: JK                    :      0.000u      0.000s      0.000w      2 calls
| | PK computes JK          :      0.000u      0.000s      0.000w      2 calls
| JK: AO2USO                :      0.000u      0.000s      0.000w      2 calls
HF: Form F                  :      0.000u      0.000s      0.000w      2 calls
HF: DIIS                    :      0.000u      0.000s      0.000w      2 calls
| DIISManager::add_entry    :      0.000u      0.000s      0.000w      2 calls
| DIISManager::extrapolate  :      0.000u      0.000s      0.000w      1 calls
| | bMatrix setup           :      0.000u      0.000s      0.000w      1 calls
| | bMatrix pseudoinverse   :      0.000u      0.000s      0.000w      1 calls
| | New vector              :      0.000u      0.000s      0.000w      1 calls
HF: Form C                  :      0.000u      0.000s      0.000w      2 calls
HF: Form D                  :      0.000u      0.000s      0.000w      2 calls

***********************************************************

Host: hrgrimsl-XPS-13-9370

Timers On : Mon Sep 21 19:21:40 2020
Timers Off: Mon Sep 21 19:21:41 2020

Wall Time:        0.47 seconds

Total PK formation time     :      0.033u      0.000s      0.019w      1 calls
HF: Form H                  :      0.000u      0.000s      0.001w      1 calls
HF: Form S/X                :      0.000u      0.000s      0.000w      1 calls
HF: Guess                   :      0.000u      0.000s      0.000w      1 calls
HF: Form G                  :      0.000u      0.000s      0.000w      2 calls
JK: D                       :      0.000u      0.000s      0.000w      2 calls
JK: USO2AO                  :      0.000u      0.000s      0.000w      2 calls
JK: JK                      :      0.000u      0.000s      0.000w      2 calls
PK computes JK              :      0.000u      0.000s      0.000w      2 calls
JK: AO2USO                  :      0.000u      0.000s      0.000w      2 calls
HF: Form F                  :      0.000u      0.000s      0.000w      2 calls
HF: DIIS                    :      0.000u      0.000s      0.000w      2 calls
DIISManager::add_entry      :      0.000u      0.000s      0.000w      2 calls
DIISManager::extrapolate    :      0.000u      0.000s      0.000w      1 calls
bMatrix setup               :      0.000u      0.000s      0.000w      1 calls
bMatrix pseudoinverse       :      0.000u      0.000s      0.000w      1 calls
New vector                  :      0.000u      0.000s      0.000w      1 calls
HF: Form C                  :      0.000u      0.000s      0.000w      2 calls
HF: Form D                  :      0.000u      0.000s      0.000w      2 calls

-----------------------------------------------------------
Total PK formation time     :      0.033u      0.000s      0.019w      1 calls
HF: Form H                  :      0.000u      0.000s      0.001w      1 calls
HF: Form S/X                :      0.000u      0.000s      0.000w      1 calls
HF: Guess                   :      0.000u      0.000s      0.000w      1 calls
HF: Form G                  :      0.000u      0.000s      0.000w      2 calls
| JK: D                     :      0.000u      0.000s      0.000w      2 calls
| JK: USO2AO                :      0.000u      0.000s      0.000w      2 calls
| JK: JK                    :      0.000u      0.000s      0.000w      2 calls
| | PK computes JK          :      0.000u      0.000s      0.000w      2 calls
| JK: AO2USO                :      0.000u      0.000s      0.000w      2 calls
HF: Form F                  :      0.000u      0.000s      0.000w      2 calls
HF: DIIS                    :      0.000u      0.000s      0.000w      2 calls
| DIISManager::add_entry    :      0.000u      0.000s      0.000w      2 calls
| DIISManager::extrapolate  :      0.000u      0.000s      0.000w      1 calls
| | bMatrix setup           :      0.000u      0.000s      0.000w      1 calls
| | bMatrix pseudoinverse   :      0.000u      0.000s      0.000w      1 calls
| | New vector              :      0.000u      0.000s      0.000w      1 calls
HF: Form C                  :      0.000u      0.000s      0.000w      2 calls
HF: Form D                  :      0.000u      0.000s      0.000w      2 calls

***********************************************************

Host: hrgrimsl-XPS-13-9370

Timers On : Mon Sep 21 19:21:55 2020
Timers Off: Mon Sep 21 19:21:56 2020

Wall Time:        0.44 seconds

Total PK formation time     :      0.017u      0.000s      0.006w      1 calls
HF: Form H                  :      0.000u      0.000s      0.000w      1 calls
HF: Form S/X                :      0.000u      0.000s      0.000w      1 calls
HF: Guess                   :      0.000u      0.000s      0.000w      1 calls
HF: Form G                  :      0.000u      0.000s      0.000w      2 calls
JK: D                       :      0.000u      0.000s      0.000w      2 calls
JK: USO2AO                  :      0.000u      0.000s      0.000w      2 calls
JK: JK                      :      0.000u      0.000s      0.000w      2 calls
PK computes JK              :      0.000u      0.000s      0.000w      2 calls
JK: AO2USO                  :      0.000u      0.000s      0.000w      2 calls
HF: Form F                  :      0.000u      0.000s      0.000w      2 calls
HF: DIIS                    :      0.000u      0.000s      0.000w      2 calls
DIISManager::add_entry      :      0.000u      0.000s      0.000w      2 calls
DIISManager::extrapolate    :      0.000u      0.000s      0.000w      1 calls
bMatrix setup               :      0.000u      0.000s      0.000w      1 calls
bMatrix pseudoinverse       :      0.000u      0.000s      0.000w      1 calls
New vector                  :      0.000u      0.000s      0.000w      1 calls
HF: Form C                  :      0.000u      0.000s      0.000w      2 calls
HF: Form D                  :      0.000u      0.000s      0.000w      2 calls

-----------------------------------------------------------
Total PK formation time     :      0.017u      0.000s      0.006w      1 calls
HF: Form H                  :      0.000u      0.000s      0.000w      1 calls
HF: Form S/X                :      0.000u      0.000s      0.000w      1 calls
HF: Guess                   :      0.000u      0.000s      0.000w      1 calls
HF: Form G                  :      0.000u      0.000s      0.000w      2 calls
| JK: D                     :      0.000u      0.000s      0.000w      2 calls
| JK: USO2AO                :      0.000u      0.000s      0.000w      2 calls
| JK: JK                    :      0.000u      0.000s      0.000w      2 calls
| | PK computes JK          :      0.000u      0.000s      0.000w      2 calls
| JK: AO2USO                :      0.000u      0.000s      0.000w      2 calls
HF: Form F                  :      0.000u      0.000s      0.000w      2 calls
HF: DIIS                    :      0.000u      0.000s      0.000w      2 calls
| DIISManager::add_entry    :      0.000u      0.000s      0.000w      2 calls
| DIISManager::extrapolate  :      0.000u      0.000s      0.000w      1 calls
| | bMatrix setup           :      0.000u      0.000s      0.000w      1 calls
| | bMatrix pseudoinverse   :      0.000u      0.000s      0.000w      1 calls
| | New vector              :      0.000u      0.000s      0.000w      1 calls
HF: Form C                  :      0.000u      0.000s      0.000w      2 calls
HF: Form D                  :      0.000u      0.000s      0.000w      2 calls

***********************************************************

Host: hrgrimsl-XPS-13-9370

Timers On : Mon Sep 21 19:24:51 2020
Timers Off: Mon Sep 21 19:24:51 2020

Wall Time:        0.44 seconds

Total PK formation time     :      0.000u      0.000s      0.008w      1 calls
HF: Form H                  :      0.000u      0.000s      0.000w      1 calls
HF: Form S/X                :      0.000u      0.000s      0.000w      1 calls
HF: Guess                   :      0.000u      0.000s      0.000w      1 calls
HF: Form G                  :      0.000u      0.000s      0.000w      2 calls
JK: D                       :      0.000u      0.000s      0.000w      2 calls
JK: USO2AO                  :      0.000u      0.000s      0.000w      2 calls
JK: JK                      :      0.000u      0.000s      0.000w      2 calls
PK computes JK              :      0.000u      0.000s      0.000w      2 calls
JK: AO2USO                  :      0.000u      0.000s      0.000w      2 calls
HF: Form F                  :      0.000u      0.000s      0.000w      2 calls
HF: DIIS                    :      0.000u      0.000s      0.000w      2 calls
DIISManager::add_entry      :      0.000u      0.000s      0.000w      2 calls
DIISManager::extrapolate    :      0.000u      0.000s      0.000w      1 calls
bMatrix setup               :      0.000u      0.000s      0.000w      1 calls
bMatrix pseudoinverse       :      0.000u      0.000s      0.000w      1 calls
New vector                  :      0.000u      0.000s      0.000w      1 calls
HF: Form C                  :      0.000u      0.000s      0.000w      2 calls
HF: Form D                  :      0.000u      0.000s      0.000w      2 calls

-----------------------------------------------------------
Total PK formation time     :      0.000u      0.000s      0.008w      1 calls
HF: Form H                  :      0.000u      0.000s      0.000w      1 calls
HF: Form S/X                :      0.000u      0.000s      0.000w      1 calls
HF: Guess                   :      0.000u      0.000s      0.000w      1 calls
HF: Form G                  :      0.000u      0.000s      0.000w      2 calls
| JK: D                     :      0.000u      0.000s      0.000w      2 calls
| JK: USO2AO                :      0.000u      0.000s      0.000w      2 calls
| JK: JK                    :      0.000u      0.000s      0.000w      2 calls
| | PK computes JK          :      0.000u      0.000s      0.000w      2 calls
| JK: AO2USO                :      0.000u      0.000s      0.000w      2 calls
HF: Form F                  :      0.000u      0.000s      0.000w      2 calls
HF: DIIS                    :      0.000u      0.000s      0.000w      2 calls
| DIISManager::add_entry    :      0.000u      0.000s      0.000w      2 calls
| DIISManager::extrapolate  :      0.000u      0.000s      0.000w      1 calls
| | bMatrix setup           :      0.000u      0.000s      0.000w      1 calls
| | bMatrix pseudoinverse   :      0.000u      0.000s      0.000w      1 calls
| | New vector              :      0.000u      0.000s      0.000w      1 calls
HF: Form C                  :      0.000u      0.000s      0.000w      2 calls
HF: Form D                  :      0.000u      0.000s      0.000w      2 calls

***********************************************************

Host: hrgrimsl-XPS-13-9370

Timers On : Mon Sep 21 19:25:19 2020
Timers Off: Mon Sep 21 19:25:19 2020

Wall Time:        0.47 seconds


-----------------------------------------------------------

***********************************************************

Host: hrgrimsl-XPS-13-9370

Timers On : Mon Sep 21 19:25:28 2020
Timers Off: Mon Sep 21 19:25:28 2020

Wall Time:        0.47 seconds

Total PK formation time     :      0.017u      0.000s      0.006w      1 calls
HF: Form H                  :      0.000u      0.000s      0.000w      1 calls
HF: Form S/X                :      0.000u      0.000s      0.000w      1 calls
HF: Guess                   :      0.000u      0.000s      0.000w      1 calls
HF: Form G                  :      0.000u      0.000s      0.000w      2 calls
JK: D                       :      0.000u      0.000s      0.000w      2 calls
JK: USO2AO                  :      0.000u      0.000s      0.000w      2 calls
JK: JK                      :      0.000u      0.000s      0.000w      2 calls
PK computes JK              :      0.000u      0.000s      0.000w      2 calls
JK: AO2USO                  :      0.000u      0.000s      0.000w      2 calls
HF: Form F                  :      0.000u      0.000s      0.000w      2 calls
HF: DIIS                    :      0.000u      0.000s      0.000w      2 calls
DIISManager::add_entry      :      0.000u      0.000s      0.000w      2 calls
DIISManager::extrapolate    :      0.000u      0.000s      0.000w      1 calls
bMatrix setup               :      0.000u      0.000s      0.000w      1 calls
bMatrix pseudoinverse       :      0.000u      0.000s      0.000w      1 calls
New vector                  :      0.000u      0.000s      0.000w      1 calls
HF: Form C                  :      0.000u      0.000s      0.000w      2 calls
HF: Form D                  :      0.000u      0.000s      0.000w      2 calls

-----------------------------------------------------------
Total PK formation time     :      0.017u      0.000s      0.006w      1 calls
HF: Form H                  :      0.000u      0.000s      0.000w      1 calls
HF: Form S/X                :      0.000u      0.000s      0.000w      1 calls
HF: Guess                   :      0.000u      0.000s      0.000w      1 calls
HF: Form G                  :      0.000u      0.000s      0.000w      2 calls
| JK: D                     :      0.000u      0.000s      0.000w      2 calls
| JK: USO2AO                :      0.000u      0.000s      0.000w      2 calls
| JK: JK                    :      0.000u      0.000s      0.000w      2 calls
| | PK computes JK          :      0.000u      0.000s      0.000w      2 calls
| JK: AO2USO                :      0.000u      0.000s      0.000w      2 calls
HF: Form F                  :      0.000u      0.000s      0.000w      2 calls
HF: DIIS                    :      0.000u      0.000s      0.000w      2 calls
| DIISManager::add_entry    :      0.000u      0.000s      0.000w      2 calls
| DIISManager::extrapolate  :      0.000u      0.000s      0.000w      1 calls
| | bMatrix setup           :      0.000u      0.000s      0.000w      1 calls
| | bMatrix pseudoinverse   :      0.000u      0.000s      0.000w      1 calls
| | New vector              :      0.000u      0.000s      0.000w      1 calls
HF: Form C                  :      0.000u      0.000s      0.000w      2 calls
HF: Form D                  :      0.000u      0.000s      0.000w      2 calls

***********************************************************

Host: hrgrimsl-XPS-13-9370

Timers On : Mon Sep 21 19:26:12 2020
Timers Off: Mon Sep 21 19:26:13 2020

Wall Time:        0.48 seconds

Total PK formation time     :      0.000u      0.000s      0.006w      1 calls
HF: Form H                  :      0.000u      0.000s      0.000w      1 calls
HF: Form S/X                :      0.000u      0.000s      0.000w      1 calls
HF: Guess                   :      0.000u      0.000s      0.000w      1 calls
HF: Form G                  :      0.000u      0.000s      0.000w      6 calls
JK: D                       :      0.000u      0.000s      0.000w      6 calls
JK: USO2AO                  :      0.000u      0.000s      0.000w      6 calls
JK: JK                      :      0.000u      0.000s      0.000w      6 calls
PK computes JK              :      0.000u      0.000s      0.000w      6 calls
JK: AO2USO                  :      0.000u      0.000s      0.000w      6 calls
HF: Form F                  :      0.000u      0.000s      0.000w      6 calls
HF: DIIS                    :      0.000u      0.000s      0.000w      6 calls
DIISManager::add_entry      :      0.000u      0.000s      0.000w      6 calls
DIISManager::extrapolate    :      0.000u      0.000s      0.000w      5 calls
bMatrix setup               :      0.000u      0.000s      0.000w      5 calls
bMatrix pseudoinverse       :      0.000u      0.000s      0.000w      5 calls
New vector                  :      0.000u      0.000s      0.000w      5 calls
HF: Form C                  :      0.000u      0.000s      0.000w      6 calls
HF: Form D                  :      0.000u      0.000s      0.000w      6 calls

-----------------------------------------------------------
Total PK formation time     :      0.000u      0.000s      0.006w      1 calls
HF: Form H                  :      0.000u      0.000s      0.000w      1 calls
HF: Form S/X                :      0.000u      0.000s      0.000w      1 calls
HF: Guess                   :      0.000u      0.000s      0.000w      1 calls
HF: Form G                  :      0.000u      0.000s      0.000w      6 calls
| JK: D                     :      0.000u      0.000s      0.000w      6 calls
| JK: USO2AO                :      0.000u      0.000s      0.000w      6 calls
| JK: JK                    :      0.000u      0.000s      0.000w      6 calls
| | PK computes JK          :      0.000u      0.000s      0.000w      6 calls
| JK: AO2USO                :      0.000u      0.000s      0.000w      6 calls
HF: Form F                  :      0.000u      0.000s      0.000w      6 calls
HF: DIIS                    :      0.000u      0.000s      0.000w      6 calls
| DIISManager::add_entry    :      0.000u      0.000s      0.000w      6 calls
| DIISManager::extrapolate  :      0.000u      0.000s      0.000w      5 calls
| | bMatrix setup           :      0.000u      0.000s      0.000w      5 calls
| | bMatrix pseudoinverse   :      0.000u      0.000s      0.000w      5 calls
| | New vector              :      0.000u      0.000s      0.000w      5 calls
HF: Form C                  :      0.000u      0.000s      0.000w      6 calls
HF: Form D                  :      0.000u      0.000s      0.000w      6 calls

***********************************************************

Host: hrgrimsl-XPS-13-9370

Timers On : Mon Sep 21 19:32:23 2020
Timers Off: Mon Sep 21 19:32:24 2020

Wall Time:        0.47 seconds

Total PK formation time     :      0.000u      0.000s      0.007w      1 calls
HF: Form H                  :      0.000u      0.000s      0.000w      1 calls
HF: Form S/X                :      0.000u      0.000s      0.000w      1 calls
HF: Guess                   :      0.000u      0.000s      0.000w      1 calls
HF: Form G                  :      0.000u      0.000s      0.000w      6 calls
JK: D                       :      0.000u      0.000s      0.000w      6 calls
JK: USO2AO                  :      0.000u      0.000s      0.000w      6 calls
JK: JK                      :      0.000u      0.000s      0.000w      6 calls
PK computes JK              :      0.000u      0.000s      0.000w      6 calls
JK: AO2USO                  :      0.000u      0.000s      0.000w      6 calls
HF: Form F                  :      0.000u      0.000s      0.000w      6 calls
HF: DIIS                    :      0.000u      0.000s      0.000w      6 calls
DIISManager::add_entry      :      0.000u      0.000s      0.000w      6 calls
DIISManager::extrapolate    :      0.000u      0.000s      0.000w      5 calls
bMatrix setup               :      0.000u      0.000s      0.000w      5 calls
bMatrix pseudoinverse       :      0.000u      0.000s      0.000w      5 calls
New vector                  :      0.000u      0.000s      0.000w      5 calls
HF: Form C                  :      0.000u      0.000s      0.000w      6 calls
HF: Form D                  :      0.000u      0.000s      0.000w      6 calls

-----------------------------------------------------------
Total PK formation time     :      0.000u      0.000s      0.007w      1 calls
HF: Form H                  :      0.000u      0.000s      0.000w      1 calls
HF: Form S/X                :      0.000u      0.000s      0.000w      1 calls
HF: Guess                   :      0.000u      0.000s      0.000w      1 calls
HF: Form G                  :      0.000u      0.000s      0.000w      6 calls
| JK: D                     :      0.000u      0.000s      0.000w      6 calls
| JK: USO2AO                :      0.000u      0.000s      0.000w      6 calls
| JK: JK                    :      0.000u      0.000s      0.000w      6 calls
| | PK computes JK          :      0.000u      0.000s      0.000w      6 calls
| JK: AO2USO                :      0.000u      0.000s      0.000w      6 calls
HF: Form F                  :      0.000u      0.000s      0.000w      6 calls
HF: DIIS                    :      0.000u      0.000s      0.000w      6 calls
| DIISManager::add_entry    :      0.000u      0.000s      0.000w      6 calls
| DIISManager::extrapolate  :      0.000u      0.000s      0.000w      5 calls
| | bMatrix setup           :      0.000u      0.000s      0.000w      5 calls
| | bMatrix pseudoinverse   :      0.000u      0.000s      0.000w      5 calls
| | New vector              :      0.000u      0.000s      0.000w      5 calls
HF: Form C                  :      0.000u      0.000s      0.000w      6 calls
HF: Form D                  :      0.000u      0.000s      0.000w      6 calls

***********************************************************

Host: hrgrimsl-XPS-13-9370

Timers On : Mon Sep 21 19:34:18 2020
Timers Off: Mon Sep 21 19:34:18 2020

Wall Time:        0.44 seconds

Total PK formation time     :      0.000u      0.000s      0.007w      1 calls
HF: Form H                  :      0.000u      0.000s      0.000w      1 calls
HF: Form S/X                :      0.000u      0.000s      0.000w      1 calls
HF: Guess                   :      0.000u      0.000s      0.000w      1 calls
HF: Form G                  :      0.000u      0.000s      0.000w      6 calls
JK: D                       :      0.000u      0.000s      0.000w      6 calls
JK: USO2AO                  :      0.000u      0.000s      0.000w      6 calls
JK: JK                      :      0.000u      0.000s      0.000w      6 calls
PK computes JK              :      0.000u      0.000s      0.000w      6 calls
JK: AO2USO                  :      0.000u      0.000s      0.000w      6 calls
HF: Form F                  :      0.000u      0.000s      0.000w      6 calls
HF: DIIS                    :      0.000u      0.000s      0.001w      6 calls
DIISManager::add_entry      :      0.000u      0.000s      0.000w      6 calls
DIISManager::extrapolate    :      0.000u      0.000s      0.000w      5 calls
bMatrix setup               :      0.000u      0.000s      0.000w      5 calls
bMatrix pseudoinverse       :      0.000u      0.000s      0.000w      5 calls
New vector                  :      0.000u      0.000s      0.000w      5 calls
HF: Form C                  :      0.000u      0.000s      0.000w      6 calls
HF: Form D                  :      0.000u      0.000s      0.000w      6 calls

-----------------------------------------------------------
Total PK formation time     :      0.000u      0.000s      0.007w      1 calls
HF: Form H                  :      0.000u      0.000s      0.000w      1 calls
HF: Form S/X                :      0.000u      0.000s      0.000w      1 calls
HF: Guess                   :      0.000u      0.000s      0.000w      1 calls
HF: Form G                  :      0.000u      0.000s      0.000w      6 calls
| JK: D                     :      0.000u      0.000s      0.000w      6 calls
| JK: USO2AO                :      0.000u      0.000s      0.000w      6 calls
| JK: JK                    :      0.000u      0.000s      0.000w      6 calls
| | PK computes JK          :      0.000u      0.000s      0.000w      6 calls
| JK: AO2USO                :      0.000u      0.000s      0.000w      6 calls
HF: Form F                  :      0.000u      0.000s      0.000w      6 calls
HF: DIIS                    :      0.000u      0.000s      0.001w      6 calls
| DIISManager::add_entry    :      0.000u      0.000s      0.000w      6 calls
| DIISManager::extrapolate  :      0.000u      0.000s      0.000w      5 calls
| | bMatrix setup           :      0.000u      0.000s      0.000w      5 calls
| | bMatrix pseudoinverse   :      0.000u      0.000s      0.000w      5 calls
| | New vector              :      0.000u      0.000s      0.000w      5 calls
HF: Form C                  :      0.000u      0.000s      0.000w      6 calls
HF: Form D                  :      0.000u      0.000s      0.000w      6 calls

***********************************************************

Host: hrgrimsl-XPS-13-9370

Timers On : Mon Sep 21 19:34:28 2020
Timers Off: Mon Sep 21 19:34:29 2020

Wall Time:        0.46 seconds

Total PK formation time     :      0.033u      0.000s      0.018w      1 calls
HF: Form H                  :      0.000u      0.000s      0.001w      1 calls
HF: Form S/X                :      0.000u      0.000s      0.000w      1 calls
HF: Guess                   :      0.000u      0.000s      0.000w      1 calls
HF: Form G                  :      0.000u      0.000s      0.000w      6 calls
JK: D                       :      0.000u      0.000s      0.000w      6 calls
JK: USO2AO                  :      0.000u      0.000s      0.000w      6 calls
JK: JK                      :      0.000u      0.000s      0.000w      6 calls
PK computes JK              :      0.000u      0.000s      0.000w      6 calls
JK: AO2USO                  :      0.000u      0.000s      0.000w      6 calls
HF: Form F                  :      0.000u      0.000s      0.000w      6 calls
HF: DIIS                    :      0.000u      0.000s      0.001w      6 calls
DIISManager::add_entry      :      0.000u      0.000s      0.000w      6 calls
DIISManager::extrapolate    :      0.000u      0.000s      0.000w      5 calls
bMatrix setup               :      0.000u      0.000s      0.000w      5 calls
bMatrix pseudoinverse       :      0.000u      0.000s      0.000w      5 calls
New vector                  :      0.000u      0.000s      0.000w      5 calls
HF: Form C                  :      0.000u      0.000s      0.000w      6 calls
HF: Form D                  :      0.000u      0.000s      0.000w      6 calls

-----------------------------------------------------------
Total PK formation time     :      0.033u      0.000s      0.018w      1 calls
HF: Form H                  :      0.000u      0.000s      0.001w      1 calls
HF: Form S/X                :      0.000u      0.000s      0.000w      1 calls
HF: Guess                   :      0.000u      0.000s      0.000w      1 calls
HF: Form G                  :      0.000u      0.000s      0.000w      6 calls
| JK: D                     :      0.000u      0.000s      0.000w      6 calls
| JK: USO2AO                :      0.000u      0.000s      0.000w      6 calls
| JK: JK                    :      0.000u      0.000s      0.000w      6 calls
| | PK computes JK          :      0.000u      0.000s      0.000w      6 calls
| JK: AO2USO                :      0.000u      0.000s      0.000w      6 calls
HF: Form F                  :      0.000u      0.000s      0.000w      6 calls
HF: DIIS                    :      0.000u      0.000s      0.001w      6 calls
| DIISManager::add_entry    :      0.000u      0.000s      0.000w      6 calls
| DIISManager::extrapolate  :      0.000u      0.000s      0.000w      5 calls
| | bMatrix setup           :      0.000u      0.000s      0.000w      5 calls
| | bMatrix pseudoinverse   :      0.000u      0.000s      0.000w      5 calls
| | New vector              :      0.000u      0.000s      0.000w      5 calls
HF: Form C                  :      0.000u      0.000s      0.000w      6 calls
HF: Form D                  :      0.000u      0.000s      0.000w      6 calls

***********************************************************

Host: hrgrimsl-XPS-13-9370

Timers On : Mon Sep 21 19:36:57 2020
Timers Off: Mon Sep 21 19:36:57 2020

Wall Time:        0.45 seconds

Total PK formation time     :      0.000u      0.000s      0.006w      1 calls
HF: Form H                  :      0.000u      0.000s      0.000w      1 calls
HF: Form S/X                :      0.000u      0.000s      0.000w      1 calls
HF: Guess                   :      0.000u      0.000s      0.000w      1 calls
HF: Form G                  :      0.000u      0.000s      0.000w      6 calls
JK: D                       :      0.000u      0.000s      0.000w      6 calls
JK: USO2AO                  :      0.000u      0.000s      0.000w      6 calls
JK: JK                      :      0.000u      0.000s      0.000w      6 calls
PK computes JK              :      0.000u      0.000s      0.000w      6 calls
JK: AO2USO                  :      0.000u      0.000s      0.000w      6 calls
HF: Form F                  :      0.000u      0.000s      0.000w      6 calls
HF: DIIS                    :      0.000u      0.000s      0.000w      6 calls
DIISManager::add_entry      :      0.000u      0.000s      0.000w      6 calls
DIISManager::extrapolate    :      0.000u      0.000s      0.000w      5 calls
bMatrix setup               :      0.000u      0.000s      0.000w      5 calls
bMatrix pseudoinverse       :      0.000u      0.000s      0.000w      5 calls
New vector                  :      0.000u      0.000s      0.000w      5 calls
HF: Form C                  :      0.000u      0.000s      0.000w      6 calls
HF: Form D                  :      0.000u      0.000s      0.000w      6 calls

-----------------------------------------------------------
Total PK formation time     :      0.000u      0.000s      0.006w      1 calls
HF: Form H                  :      0.000u      0.000s      0.000w      1 calls
HF: Form S/X                :      0.000u      0.000s      0.000w      1 calls
HF: Guess                   :      0.000u      0.000s      0.000w      1 calls
HF: Form G                  :      0.000u      0.000s      0.000w      6 calls
| JK: D                     :      0.000u      0.000s      0.000w      6 calls
| JK: USO2AO                :      0.000u      0.000s      0.000w      6 calls
| JK: JK                    :      0.000u      0.000s      0.000w      6 calls
| | PK computes JK          :      0.000u      0.000s      0.000w      6 calls
| JK: AO2USO                :      0.000u      0.000s      0.000w      6 calls
HF: Form F                  :      0.000u      0.000s      0.000w      6 calls
HF: DIIS                    :      0.000u      0.000s      0.000w      6 calls
| DIISManager::add_entry    :      0.000u      0.000s      0.000w      6 calls
| DIISManager::extrapolate  :      0.000u      0.000s      0.000w      5 calls
| | bMatrix setup           :      0.000u      0.000s      0.000w      5 calls
| | bMatrix pseudoinverse   :      0.000u      0.000s      0.000w      5 calls
| | New vector              :      0.000u      0.000s      0.000w      5 calls
HF: Form C                  :      0.000u      0.000s      0.000w      6 calls
HF: Form D                  :      0.000u      0.000s      0.000w      6 calls

***********************************************************

Host: hrgrimsl-XPS-13-9370

Timers On : Mon Sep 21 20:31:03 2020
Timers Off: Mon Sep 21 20:31:04 2020

Wall Time:        0.45 seconds

Total PK formation time     :      0.017u      0.017s      0.006w      1 calls
HF: Form H                  :      0.000u      0.000s      0.000w      1 calls
HF: Form S/X                :      0.000u      0.000s      0.000w      1 calls
HF: Guess                   :      0.000u      0.000s      0.000w      1 calls
HF: Form G                  :      0.000u      0.000s      0.000w      6 calls
JK: D                       :      0.000u      0.000s      0.000w      6 calls
JK: USO2AO                  :      0.000u      0.000s      0.000w      6 calls
JK: JK                      :      0.000u      0.000s      0.000w      6 calls
PK computes JK              :      0.000u      0.000s      0.000w      6 calls
JK: AO2USO                  :      0.000u      0.000s      0.000w      6 calls
HF: Form F                  :      0.000u      0.000s      0.000w      6 calls
HF: DIIS                    :      0.000u      0.000s      0.000w      6 calls
DIISManager::add_entry      :      0.000u      0.000s      0.000w      6 calls
DIISManager::extrapolate    :      0.000u      0.000s      0.000w      5 calls
bMatrix setup               :      0.000u      0.000s      0.000w      5 calls
bMatrix pseudoinverse       :      0.000u      0.000s      0.000w      5 calls
New vector                  :      0.000u      0.000s      0.000w      5 calls
HF: Form C                  :      0.000u      0.000s      0.000w      6 calls
HF: Form D                  :      0.000u      0.000s      0.000w      6 calls

-----------------------------------------------------------
Total PK formation time     :      0.017u      0.017s      0.006w      1 calls
HF: Form H                  :      0.000u      0.000s      0.000w      1 calls
HF: Form S/X                :      0.000u      0.000s      0.000w      1 calls
HF: Guess                   :      0.000u      0.000s      0.000w      1 calls
HF: Form G                  :      0.000u      0.000s      0.000w      6 calls
| JK: D                     :      0.000u      0.000s      0.000w      6 calls
| JK: USO2AO                :      0.000u      0.000s      0.000w      6 calls
| JK: JK                    :      0.000u      0.000s      0.000w      6 calls
| | PK computes JK          :      0.000u      0.000s      0.000w      6 calls
| JK: AO2USO                :      0.000u      0.000s      0.000w      6 calls
HF: Form F                  :      0.000u      0.000s      0.000w      6 calls
HF: DIIS                    :      0.000u      0.000s      0.000w      6 calls
| DIISManager::add_entry    :      0.000u      0.000s      0.000w      6 calls
| DIISManager::extrapolate  :      0.000u      0.000s      0.000w      5 calls
| | bMatrix setup           :      0.000u      0.000s      0.000w      5 calls
| | bMatrix pseudoinverse   :      0.000u      0.000s      0.000w      5 calls
| | New vector              :      0.000u      0.000s      0.000w      5 calls
HF: Form C                  :      0.000u      0.000s      0.000w      6 calls
HF: Form D                  :      0.000u      0.000s      0.000w      6 calls

***********************************************************

Host: hrgrimsl-XPS-13-9370

Timers On : Mon Sep 21 20:37:16 2020
Timers Off: Mon Sep 21 20:37:16 2020

Wall Time:        0.47 seconds

Total PK formation time     :      0.033u      0.000s      0.017w      1 calls
HF: Form H                  :      0.000u      0.000s      0.001w      1 calls
HF: Form S/X                :      0.000u      0.000s      0.000w      1 calls
HF: Guess                   :      0.000u      0.000s      0.000w      1 calls
HF: Form G                  :      0.000u      0.000s      0.000w      6 calls
JK: D                       :      0.000u      0.000s      0.000w      6 calls
JK: USO2AO                  :      0.000u      0.000s      0.000w      6 calls
JK: JK                      :      0.000u      0.000s      0.000w      6 calls
PK computes JK              :      0.000u      0.000s      0.000w      6 calls
JK: AO2USO                  :      0.000u      0.000s      0.000w      6 calls
HF: Form F                  :      0.000u      0.000s      0.000w      6 calls
HF: DIIS                    :      0.000u      0.000s      0.001w      6 calls
DIISManager::add_entry      :      0.000u      0.000s      0.000w      6 calls
DIISManager::extrapolate    :      0.000u      0.000s      0.000w      5 calls
bMatrix setup               :      0.000u      0.000s      0.000w      5 calls
bMatrix pseudoinverse       :      0.000u      0.000s      0.000w      5 calls
New vector                  :      0.000u      0.000s      0.000w      5 calls
HF: Form C                  :      0.000u      0.000s      0.000w      6 calls
HF: Form D                  :      0.000u      0.000s      0.000w      6 calls

-----------------------------------------------------------
Total PK formation time     :      0.033u      0.000s      0.017w      1 calls
HF: Form H                  :      0.000u      0.000s      0.001w      1 calls
HF: Form S/X                :      0.000u      0.000s      0.000w      1 calls
HF: Guess                   :      0.000u      0.000s      0.000w      1 calls
HF: Form G                  :      0.000u      0.000s      0.000w      6 calls
| JK: D                     :      0.000u      0.000s      0.000w      6 calls
| JK: USO2AO                :      0.000u      0.000s      0.000w      6 calls
| JK: JK                    :      0.000u      0.000s      0.000w      6 calls
| | PK computes JK          :      0.000u      0.000s      0.000w      6 calls
| JK: AO2USO                :      0.000u      0.000s      0.000w      6 calls
HF: Form F                  :      0.000u      0.000s      0.000w      6 calls
HF: DIIS                    :      0.000u      0.000s      0.001w      6 calls
| DIISManager::add_entry    :      0.000u      0.000s      0.000w      6 calls
| DIISManager::extrapolate  :      0.000u      0.000s      0.000w      5 calls
| | bMatrix setup           :      0.000u      0.000s      0.000w      5 calls
| | bMatrix pseudoinverse   :      0.000u      0.000s      0.000w      5 calls
| | New vector              :      0.000u      0.000s      0.000w      5 calls
HF: Form C                  :      0.000u      0.000s      0.000w      6 calls
HF: Form D                  :      0.000u      0.000s      0.000w      6 calls

***********************************************************

Host: hrgrimsl-XPS-13-9370

Timers On : Mon Sep 21 20:37:49 2020
Timers Off: Mon Sep 21 20:37:50 2020

Wall Time:        0.45 seconds

Total PK formation time     :      0.000u      0.000s      0.006w      1 calls
HF: Form H                  :      0.000u      0.000s      0.000w      1 calls
HF: Form S/X                :      0.000u      0.000s      0.000w      1 calls
HF: Guess                   :      0.000u      0.000s      0.000w      1 calls
HF: Form G                  :      0.000u      0.000s      0.000w      6 calls
JK: D                       :      0.000u      0.000s      0.000w      6 calls
JK: USO2AO                  :      0.000u      0.000s      0.000w      6 calls
JK: JK                      :      0.000u      0.000s      0.000w      6 calls
PK computes JK              :      0.000u      0.000s      0.000w      6 calls
JK: AO2USO                  :      0.000u      0.000s      0.000w      6 calls
HF: Form F                  :      0.000u      0.000s      0.000w      6 calls
HF: DIIS                    :      0.000u      0.000s      0.000w      6 calls
DIISManager::add_entry      :      0.000u      0.000s      0.000w      6 calls
DIISManager::extrapolate    :      0.000u      0.000s      0.000w      5 calls
bMatrix setup               :      0.000u      0.000s      0.000w      5 calls
bMatrix pseudoinverse       :      0.000u      0.000s      0.000w      5 calls
New vector                  :      0.000u      0.000s      0.000w      5 calls
HF: Form C                  :      0.000u      0.000s      0.000w      6 calls
HF: Form D                  :      0.000u      0.000s      0.000w      6 calls

-----------------------------------------------------------
Total PK formation time     :      0.000u      0.000s      0.006w      1 calls
HF: Form H                  :      0.000u      0.000s      0.000w      1 calls
HF: Form S/X                :      0.000u      0.000s      0.000w      1 calls
HF: Guess                   :      0.000u      0.000s      0.000w      1 calls
HF: Form G                  :      0.000u      0.000s      0.000w      6 calls
| JK: D                     :      0.000u      0.000s      0.000w      6 calls
| JK: USO2AO                :      0.000u      0.000s      0.000w      6 calls
| JK: JK                    :      0.000u      0.000s      0.000w      6 calls
| | PK computes JK          :      0.000u      0.000s      0.000w      6 calls
| JK: AO2USO                :      0.000u      0.000s      0.000w      6 calls
HF: Form F                  :      0.000u      0.000s      0.000w      6 calls
HF: DIIS                    :      0.000u      0.000s      0.000w      6 calls
| DIISManager::add_entry    :      0.000u      0.000s      0.000w      6 calls
| DIISManager::extrapolate  :      0.000u      0.000s      0.000w      5 calls
| | bMatrix setup           :      0.000u      0.000s      0.000w      5 calls
| | bMatrix pseudoinverse   :      0.000u      0.000s      0.000w      5 calls
| | New vector              :      0.000u      0.000s      0.000w      5 calls
HF: Form C                  :      0.000u      0.000s      0.000w      6 calls
HF: Form D                  :      0.000u      0.000s      0.000w      6 calls

***********************************************************

Host: hrgrimsl-XPS-13-9370

Timers On : Mon Sep 21 20:38:16 2020
Timers Off: Mon Sep 21 20:38:17 2020

Wall Time:        0.45 seconds

Total PK formation time     :      0.017u      0.000s      0.007w      1 calls
HF: Form H                  :      0.000u      0.000s      0.000w      1 calls
HF: Form S/X                :      0.000u      0.000s      0.000w      1 calls
HF: Guess                   :      0.000u      0.000s      0.000w      1 calls
HF: Form G                  :      0.000u      0.000s      0.000w      6 calls
JK: D                       :      0.000u      0.000s      0.000w      6 calls
JK: USO2AO                  :      0.000u      0.000s      0.000w      6 calls
JK: JK                      :      0.000u      0.000s      0.000w      6 calls
PK computes JK              :      0.000u      0.000s      0.000w      6 calls
JK: AO2USO                  :      0.000u      0.000s      0.000w      6 calls
HF: Form F                  :      0.000u      0.000s      0.000w      6 calls
HF: DIIS                    :      0.000u      0.000s      0.000w      6 calls
DIISManager::add_entry      :      0.000u      0.000s      0.000w      6 calls
DIISManager::extrapolate    :      0.000u      0.000s      0.000w      5 calls
bMatrix setup               :      0.000u      0.000s      0.000w      5 calls
bMatrix pseudoinverse       :      0.000u      0.000s      0.000w      5 calls
New vector                  :      0.000u      0.000s      0.000w      5 calls
HF: Form C                  :      0.000u      0.000s      0.000w      6 calls
HF: Form D                  :      0.000u      0.000s      0.000w      6 calls

-----------------------------------------------------------
Total PK formation time     :      0.017u      0.000s      0.007w      1 calls
HF: Form H                  :      0.000u      0.000s      0.000w      1 calls
HF: Form S/X                :      0.000u      0.000s      0.000w      1 calls
HF: Guess                   :      0.000u      0.000s      0.000w      1 calls
HF: Form G                  :      0.000u      0.000s      0.000w      6 calls
| JK: D                     :      0.000u      0.000s      0.000w      6 calls
| JK: USO2AO                :      0.000u      0.000s      0.000w      6 calls
| JK: JK                    :      0.000u      0.000s      0.000w      6 calls
| | PK computes JK          :      0.000u      0.000s      0.000w      6 calls
| JK: AO2USO                :      0.000u      0.000s      0.000w      6 calls
HF: Form F                  :      0.000u      0.000s      0.000w      6 calls
HF: DIIS                    :      0.000u      0.000s      0.000w      6 calls
| DIISManager::add_entry    :      0.000u      0.000s      0.000w      6 calls
| DIISManager::extrapolate  :      0.000u      0.000s      0.000w      5 calls
| | bMatrix setup           :      0.000u      0.000s      0.000w      5 calls
| | bMatrix pseudoinverse   :      0.000u      0.000s      0.000w      5 calls
| | New vector              :      0.000u      0.000s      0.000w      5 calls
HF: Form C                  :      0.000u      0.000s      0.000w      6 calls
HF: Form D                  :      0.000u      0.000s      0.000w      6 calls

***********************************************************

Host: hrgrimsl-XPS-13-9370

Timers On : Mon Sep 21 20:38:57 2020
Timers Off: Mon Sep 21 20:38:57 2020

Wall Time:        0.51 seconds

Total PK formation time     :      0.033u      0.000s      0.023w      1 calls
HF: Form H                  :      0.000u      0.000s      0.001w      1 calls
HF: Form S/X                :      0.000u      0.000s      0.000w      1 calls
HF: Guess                   :      0.000u      0.000s      0.000w      1 calls
HF: Form G                  :      0.000u      0.000s      0.000w      6 calls
JK: D                       :      0.000u      0.000s      0.000w      6 calls
JK: USO2AO                  :      0.000u      0.000s      0.000w      6 calls
JK: JK                      :      0.000u      0.000s      0.000w      6 calls
PK computes JK              :      0.000u      0.000s      0.000w      6 calls
JK: AO2USO                  :      0.000u      0.000s      0.000w      6 calls
HF: Form F                  :      0.000u      0.000s      0.000w      6 calls
HF: DIIS                    :      0.000u      0.000s      0.001w      6 calls
DIISManager::add_entry      :      0.000u      0.000s      0.000w      6 calls
DIISManager::extrapolate    :      0.000u      0.000s      0.000w      5 calls
bMatrix setup               :      0.000u      0.000s      0.000w      5 calls
bMatrix pseudoinverse       :      0.000u      0.000s      0.000w      5 calls
New vector                  :      0.000u      0.000s      0.000w      5 calls
HF: Form C                  :      0.000u      0.000s      0.000w      6 calls
HF: Form D                  :      0.000u      0.000s      0.000w      6 calls

-----------------------------------------------------------
Total PK formation time     :      0.033u      0.000s      0.023w      1 calls
HF: Form H                  :      0.000u      0.000s      0.001w      1 calls
HF: Form S/X                :      0.000u      0.000s      0.000w      1 calls
HF: Guess                   :      0.000u      0.000s      0.000w      1 calls
HF: Form G                  :      0.000u      0.000s      0.000w      6 calls
| JK: D                     :      0.000u      0.000s      0.000w      6 calls
| JK: USO2AO                :      0.000u      0.000s      0.000w      6 calls
| JK: JK                    :      0.000u      0.000s      0.000w      6 calls
| | PK computes JK          :      0.000u      0.000s      0.000w      6 calls
| JK: AO2USO                :      0.000u      0.000s      0.000w      6 calls
HF: Form F                  :      0.000u      0.000s      0.000w      6 calls
HF: DIIS                    :      0.000u      0.000s      0.001w      6 calls
| DIISManager::add_entry    :      0.000u      0.000s      0.000w      6 calls
| DIISManager::extrapolate  :      0.000u      0.000s      0.000w      5 calls
| | bMatrix setup           :      0.000u      0.000s      0.000w      5 calls
| | bMatrix pseudoinverse   :      0.000u      0.000s      0.000w      5 calls
| | New vector              :      0.000u      0.000s      0.000w      5 calls
HF: Form C                  :      0.000u      0.000s      0.000w      6 calls
HF: Form D                  :      0.000u      0.000s      0.000w      6 calls

***********************************************************

Host: hrgrimsl-XPS-13-9370

Timers On : Mon Sep 21 20:39:21 2020
Timers Off: Mon Sep 21 20:39:21 2020

Wall Time:        0.44 seconds

Total PK formation time     :      0.017u      0.000s      0.006w      1 calls
HF: Form H                  :      0.000u      0.000s      0.000w      1 calls
HF: Form S/X                :      0.000u      0.000s      0.000w      1 calls
HF: Guess                   :      0.000u      0.000s      0.000w      1 calls
HF: Form G                  :      0.000u      0.000s      0.000w      6 calls
JK: D                       :      0.000u      0.000s      0.000w      6 calls
JK: USO2AO                  :      0.000u      0.000s      0.000w      6 calls
JK: JK                      :      0.000u      0.000s      0.000w      6 calls
PK computes JK              :      0.000u      0.000s      0.000w      6 calls
JK: AO2USO                  :      0.000u      0.000s      0.000w      6 calls
HF: Form F                  :      0.000u      0.000s      0.000w      6 calls
HF: DIIS                    :      0.000u      0.000s      0.000w      6 calls
DIISManager::add_entry      :      0.000u      0.000s      0.000w      6 calls
DIISManager::extrapolate    :      0.000u      0.000s      0.000w      5 calls
bMatrix setup               :      0.000u      0.000s      0.000w      5 calls
bMatrix pseudoinverse       :      0.000u      0.000s      0.000w      5 calls
New vector                  :      0.000u      0.000s      0.000w      5 calls
HF: Form C                  :      0.000u      0.000s      0.000w      6 calls
HF: Form D                  :      0.000u      0.000s      0.000w      6 calls

-----------------------------------------------------------
Total PK formation time     :      0.017u      0.000s      0.006w      1 calls
HF: Form H                  :      0.000u      0.000s      0.000w      1 calls
HF: Form S/X                :      0.000u      0.000s      0.000w      1 calls
HF: Guess                   :      0.000u      0.000s      0.000w      1 calls
HF: Form G                  :      0.000u      0.000s      0.000w      6 calls
| JK: D                     :      0.000u      0.000s      0.000w      6 calls
| JK: USO2AO                :      0.000u      0.000s      0.000w      6 calls
| JK: JK                    :      0.000u      0.000s      0.000w      6 calls
| | PK computes JK          :      0.000u      0.000s      0.000w      6 calls
| JK: AO2USO                :      0.000u      0.000s      0.000w      6 calls
HF: Form F                  :      0.000u      0.000s      0.000w      6 calls
HF: DIIS                    :      0.000u      0.000s      0.000w      6 calls
| DIISManager::add_entry    :      0.000u      0.000s      0.000w      6 calls
| DIISManager::extrapolate  :      0.000u      0.000s      0.000w      5 calls
| | bMatrix setup           :      0.000u      0.000s      0.000w      5 calls
| | bMatrix pseudoinverse   :      0.000u      0.000s      0.000w      5 calls
| | New vector              :      0.000u      0.000s      0.000w      5 calls
HF: Form C                  :      0.000u      0.000s      0.000w      6 calls
HF: Form D                  :      0.000u      0.000s      0.000w      6 calls

***********************************************************

Host: hrgrimsl-XPS-13-9370

Timers On : Mon Sep 21 20:41:42 2020
Timers Off: Mon Sep 21 20:41:42 2020

Wall Time:        0.47 seconds

Total PK formation time     :      0.033u      0.000s      0.021w      1 calls
HF: Form H                  :      0.000u      0.017s      0.001w      1 calls
HF: Form S/X                :      0.000u      0.000s      0.000w      1 calls
HF: Guess                   :      0.000u      0.000s      0.000w      1 calls
HF: Form G                  :      0.000u      0.000s      0.000w      2 calls
JK: D                       :      0.000u      0.000s      0.000w      2 calls
JK: USO2AO                  :      0.000u      0.000s      0.000w      2 calls
JK: JK                      :      0.000u      0.000s      0.000w      2 calls
PK computes JK              :      0.000u      0.000s      0.000w      2 calls
JK: AO2USO                  :      0.000u      0.000s      0.000w      2 calls
HF: Form F                  :      0.000u      0.000s      0.000w      2 calls
HF: DIIS                    :      0.000u      0.000s      0.000w      2 calls
DIISManager::add_entry      :      0.000u      0.000s      0.000w      2 calls
DIISManager::extrapolate    :      0.000u      0.000s      0.000w      1 calls
bMatrix setup               :      0.000u      0.000s      0.000w      1 calls
bMatrix pseudoinverse       :      0.000u      0.000s      0.000w      1 calls
New vector                  :      0.000u      0.000s      0.000w      1 calls
HF: Form C                  :      0.000u      0.000s      0.000w      2 calls
HF: Form D                  :      0.000u      0.000s      0.000w      2 calls

-----------------------------------------------------------
Total PK formation time     :      0.033u      0.000s      0.021w      1 calls
HF: Form H                  :      0.000u      0.017s      0.001w      1 calls
HF: Form S/X                :      0.000u      0.000s      0.000w      1 calls
HF: Guess                   :      0.000u      0.000s      0.000w      1 calls
HF: Form G                  :      0.000u      0.000s      0.000w      2 calls
| JK: D                     :      0.000u      0.000s      0.000w      2 calls
| JK: USO2AO                :      0.000u      0.000s      0.000w      2 calls
| JK: JK                    :      0.000u      0.000s      0.000w      2 calls
| | PK computes JK          :      0.000u      0.000s      0.000w      2 calls
| JK: AO2USO                :      0.000u      0.000s      0.000w      2 calls
HF: Form F                  :      0.000u      0.000s      0.000w      2 calls
HF: DIIS                    :      0.000u      0.000s      0.000w      2 calls
| DIISManager::add_entry    :      0.000u      0.000s      0.000w      2 calls
| DIISManager::extrapolate  :      0.000u      0.000s      0.000w      1 calls
| | bMatrix setup           :      0.000u      0.000s      0.000w      1 calls
| | bMatrix pseudoinverse   :      0.000u      0.000s      0.000w      1 calls
| | New vector              :      0.000u      0.000s      0.000w      1 calls
HF: Form C                  :      0.000u      0.000s      0.000w      2 calls
HF: Form D                  :      0.000u      0.000s      0.000w      2 calls

***********************************************************

Host: hrgrimsl-XPS-13-9370

Timers On : Mon Sep 21 20:42:04 2020
Timers Off: Mon Sep 21 20:42:04 2020

Wall Time:        0.36 seconds


-----------------------------------------------------------

***********************************************************

Host: hrgrimsl-XPS-13-9370

Timers On : Mon Sep 21 20:42:12 2020
Timers Off: Mon Sep 21 20:42:13 2020

Wall Time:        0.48 seconds

Total PK formation time     :      0.033u      0.000s      0.020w      1 calls
HF: Form H                  :      0.000u      0.000s      0.001w      1 calls
HF: Form S/X                :      0.000u      0.000s      0.000w      1 calls
HF: Guess                   :      0.000u      0.000s      0.000w      1 calls
HF: Form G                  :      0.000u      0.000s      0.000w      6 calls
JK: D                       :      0.000u      0.000s      0.000w      6 calls
JK: USO2AO                  :      0.000u      0.000s      0.000w      6 calls
JK: JK                      :      0.000u      0.000s      0.000w      6 calls
PK computes JK              :      0.000u      0.000s      0.000w      6 calls
JK: AO2USO                  :      0.000u      0.000s      0.000w      6 calls
HF: Form F                  :      0.000u      0.000s      0.000w      6 calls
HF: DIIS                    :      0.000u      0.000s      0.001w      6 calls
DIISManager::add_entry      :      0.000u      0.000s      0.000w      6 calls
DIISManager::extrapolate    :      0.000u      0.000s      0.000w      5 calls
bMatrix setup               :      0.000u      0.000s      0.000w      5 calls
bMatrix pseudoinverse       :      0.000u      0.000s      0.000w      5 calls
New vector                  :      0.000u      0.000s      0.000w      5 calls
HF: Form C                  :      0.000u      0.000s      0.000w      6 calls
HF: Form D                  :      0.000u      0.000s      0.000w      6 calls

-----------------------------------------------------------
Total PK formation time     :      0.033u      0.000s      0.020w      1 calls
HF: Form H                  :      0.000u      0.000s      0.001w      1 calls
HF: Form S/X                :      0.000u      0.000s      0.000w      1 calls
HF: Guess                   :      0.000u      0.000s      0.000w      1 calls
HF: Form G                  :      0.000u      0.000s      0.000w      6 calls
| JK: D                     :      0.000u      0.000s      0.000w      6 calls
| JK: USO2AO                :      0.000u      0.000s      0.000w      6 calls
| JK: JK                    :      0.000u      0.000s      0.000w      6 calls
| | PK computes JK          :      0.000u      0.000s      0.000w      6 calls
| JK: AO2USO                :      0.000u      0.000s      0.000w      6 calls
HF: Form F                  :      0.000u      0.000s      0.000w      6 calls
HF: DIIS                    :      0.000u      0.000s      0.001w      6 calls
| DIISManager::add_entry    :      0.000u      0.000s      0.000w      6 calls
| DIISManager::extrapolate  :      0.000u      0.000s      0.000w      5 calls
| | bMatrix setup           :      0.000u      0.000s      0.000w      5 calls
| | bMatrix pseudoinverse   :      0.000u      0.000s      0.000w      5 calls
| | New vector              :      0.000u      0.000s      0.000w      5 calls
HF: Form C                  :      0.000u      0.000s      0.000w      6 calls
HF: Form D                  :      0.000u      0.000s      0.000w      6 calls

***********************************************************

Host: hrgrimsl-XPS-13-9370

Timers On : Mon Sep 21 20:43:39 2020
Timers Off: Mon Sep 21 20:43:40 2020

Wall Time:        0.79 seconds

Total PK formation time     :      0.017u      0.000s      0.010w      1 calls
HF: Form H                  :      0.000u      0.000s      0.001w      1 calls
HF: Form S/X                :      0.000u      0.000s      0.000w      1 calls
HF: Guess                   :      0.000u      0.000s      0.000w      1 calls
HF: Form G                  :      0.017u      0.000s      0.000w      6 calls
JK: D                       :      0.000u      0.000s      0.000w      6 calls
JK: USO2AO                  :      0.000u      0.000s      0.000w      6 calls
JK: JK                      :      0.000u      0.000s      0.000w      6 calls
PK computes JK              :      0.000u      0.000s      0.000w      6 calls
JK: AO2USO                  :      0.017u      0.000s      0.000w      6 calls
HF: Form F                  :      0.000u      0.000s      0.000w      6 calls
HF: DIIS                    :      0.000u      0.000s      0.001w      6 calls
DIISManager::add_entry      :      0.000u      0.000s      0.000w      6 calls
DIISManager::extrapolate    :      0.000u      0.000s      0.000w      5 calls
bMatrix setup               :      0.000u      0.000s      0.000w      5 calls
bMatrix pseudoinverse       :      0.000u      0.000s      0.000w      5 calls
New vector                  :      0.000u      0.000s      0.000w      5 calls
HF: Form C                  :      0.000u      0.000s      0.000w      6 calls
HF: Form D                  :      0.000u      0.000s      0.000w      6 calls

-----------------------------------------------------------
Total PK formation time     :      0.017u      0.000s      0.010w      1 calls
HF: Form H                  :      0.000u      0.000s      0.001w      1 calls
HF: Form S/X                :      0.000u      0.000s      0.000w      1 calls
HF: Guess                   :      0.000u      0.000s      0.000w      1 calls
HF: Form G                  :      0.017u      0.000s      0.000w      6 calls
| JK: D                     :      0.000u      0.000s      0.000w      6 calls
| JK: USO2AO                :      0.000u      0.000s      0.000w      6 calls
| JK: JK                    :      0.000u      0.000s      0.000w      6 calls
| | PK computes JK          :      0.000u      0.000s      0.000w      6 calls
| JK: AO2USO                :      0.017u      0.000s      0.000w      6 calls
HF: Form F                  :      0.000u      0.000s      0.000w      6 calls
HF: DIIS                    :      0.000u      0.000s      0.001w      6 calls
| DIISManager::add_entry    :      0.000u      0.000s      0.000w      6 calls
| DIISManager::extrapolate  :      0.000u      0.000s      0.000w      5 calls
| | bMatrix setup           :      0.000u      0.000s      0.000w      5 calls
| | bMatrix pseudoinverse   :      0.000u      0.000s      0.000w      5 calls
| | New vector              :      0.000u      0.000s      0.000w      5 calls
HF: Form C                  :      0.000u      0.000s      0.000w      6 calls
HF: Form D                  :      0.000u      0.000s      0.000w      6 calls

***********************************************************

Host: hrgrimsl-XPS-13-9370

Timers On : Mon Sep 21 20:43:50 2020
Timers Off: Mon Sep 21 20:43:51 2020

Wall Time:        0.82 seconds

Total PK formation time     :      0.017u      0.000s      0.011w      1 calls
HF: Form H                  :      0.000u      0.000s      0.001w      1 calls
HF: Form S/X                :      0.000u      0.000s      0.000w      1 calls
HF: Guess                   :      0.000u      0.000s      0.000w      1 calls
HF: Form G                  :      0.000u      0.000s      0.000w      6 calls
JK: D                       :      0.000u      0.000s      0.000w      6 calls
JK: USO2AO                  :      0.000u      0.000s      0.000w      6 calls
JK: JK                      :      0.000u      0.000s      0.000w      6 calls
PK computes JK              :      0.000u      0.000s      0.000w      6 calls
JK: AO2USO                  :      0.000u      0.000s      0.000w      6 calls
HF: Form F                  :      0.000u      0.000s      0.000w      6 calls
HF: DIIS                    :      0.000u      0.000s      0.001w      6 calls
DIISManager::add_entry      :      0.000u      0.000s      0.000w      6 calls
DIISManager::extrapolate    :      0.000u      0.000s      0.000w      5 calls
bMatrix setup               :      0.000u      0.000s      0.000w      5 calls
bMatrix pseudoinverse       :      0.000u      0.000s      0.000w      5 calls
New vector                  :      0.000u      0.000s      0.000w      5 calls
HF: Form C                  :      0.000u      0.000s      0.000w      6 calls
HF: Form D                  :      0.000u      0.000s      0.000w      6 calls

-----------------------------------------------------------
Total PK formation time     :      0.017u      0.000s      0.011w      1 calls
HF: Form H                  :      0.000u      0.000s      0.001w      1 calls
HF: Form S/X                :      0.000u      0.000s      0.000w      1 calls
HF: Guess                   :      0.000u      0.000s      0.000w      1 calls
HF: Form G                  :      0.000u      0.000s      0.000w      6 calls
| JK: D                     :      0.000u      0.000s      0.000w      6 calls
| JK: USO2AO                :      0.000u      0.000s      0.000w      6 calls
| JK: JK                    :      0.000u      0.000s      0.000w      6 calls
| | PK computes JK          :      0.000u      0.000s      0.000w      6 calls
| JK: AO2USO                :      0.000u      0.000s      0.000w      6 calls
HF: Form F                  :      0.000u      0.000s      0.000w      6 calls
HF: DIIS                    :      0.000u      0.000s      0.001w      6 calls
| DIISManager::add_entry    :      0.000u      0.000s      0.000w      6 calls
| DIISManager::extrapolate  :      0.000u      0.000s      0.000w      5 calls
| | bMatrix setup           :      0.000u      0.000s      0.000w      5 calls
| | bMatrix pseudoinverse   :      0.000u      0.000s      0.000w      5 calls
| | New vector              :      0.000u      0.000s      0.000w      5 calls
HF: Form C                  :      0.000u      0.000s      0.000w      6 calls
HF: Form D                  :      0.000u      0.000s      0.000w      6 calls

***********************************************************

Host: hrgrimsl-XPS-13-9370

Timers On : Mon Sep 21 20:45:01 2020
Timers Off: Mon Sep 21 20:45:02 2020

Wall Time:        0.45 seconds

Total PK formation time     :      0.017u      0.000s      0.007w      1 calls
HF: Form H                  :      0.000u      0.000s      0.002w      1 calls
HF: Form S/X                :      0.000u      0.000s      0.000w      1 calls
HF: Guess                   :      0.000u      0.000s      0.000w      1 calls
HF: Form G                  :      0.000u      0.000s      0.000w      6 calls
JK: D                       :      0.000u      0.000s      0.000w      6 calls
JK: USO2AO                  :      0.000u      0.000s      0.000w      6 calls
[...]
HF: Form S/X                :      0.000u      0.000s      0.000w      2 calls
HF: Guess                   :      0.133u      0.000s      0.089w      2 calls
| SAD Guess                 :      0.133u      0.000s      0.085w      2 calls
HF: Form G                  :      0.000u      0.000s      0.000w     17 calls
| JK: D                     :      0.000u      0.000s      0.000w     17 calls
| JK: USO2AO                :      0.000u      0.000s      0.000w     17 calls
| JK: JK                    :      0.000u      0.000s      0.000w     17 calls
| | PK computes JK          :      0.000u      0.000s      0.000w     17 calls
| JK: AO2USO                :      0.000u      0.000s      0.000w     17 calls
HF: Form F                  :      0.000u      0.000s      0.000w     17 calls
HF: DIIS                    :      0.000u      0.000s      0.001w     17 calls
| DIISManager::add_entry    :      0.000u      0.000s      0.000w     15 calls
| DIISManager::extrapolate  :      0.000u      0.000s      0.001w     13 calls
| | bMatrix setup           :      0.000u      0.000s      0.000w     13 calls
| | bMatrix pseudoinverse   :      0.000u      0.000s      0.000w     13 calls
| | New vector              :      0.000u      0.000s      0.000w     13 calls
HF: Form C                  :      0.000u      0.000s      0.000w     17 calls
HF: Form D                  :      0.000u      0.000s      0.000w     17 calls

***********************************************************

Host: hrgrimsl-XPS-13-9370

Timers On : Sun Oct 11 19:11:01 2020
Timers Off: Sun Oct 11 20:12:11 2020

Wall Time:     3669.59 seconds

Total PK formation time     :      0.217u      0.000s      0.137w     12 calls
HF: Form H                  :      0.000u      0.017s      0.005w     12 calls
HF: Form S/X                :      0.000u      0.000s      0.001w     12 calls
HF: Guess                   :      0.950u      0.000s      0.556w     12 calls
SAD Guess                   :      0.900u      0.000s      0.533w     12 calls
HF: Form G                  :      0.000u      0.000s      0.002w     93 calls
JK: D                       :      0.000u      0.000s      0.000w     93 calls
JK: USO2AO                  :      0.000u      0.000s      0.000w     93 calls
JK: JK                      :      0.000u      0.000s      0.001w     93 calls
PK computes JK              :      0.000u      0.000s      0.000w     93 calls
JK: AO2USO                  :      0.000u      0.000s      0.000w     93 calls
HF: Form F                  :      0.000u      0.000s      0.000w     93 calls
HF: DIIS                    :      0.017u      0.000s      0.006w     93 calls
DIISManager::add_entry      :      0.000u      0.000s      0.003w     81 calls
DIISManager::extrapolate    :      0.017u      0.000s      0.003w     69 calls
bMatrix setup               :      0.000u      0.000s      0.001w     69 calls
bMatrix pseudoinverse       :      0.017u      0.000s      0.001w     69 calls
New vector                  :      0.000u      0.000s      0.001w     69 calls
HF: Form C                  :      0.000u      0.000s      0.001w     93 calls
HF: Form D                  :      0.000u      0.000s      0.000w     93 calls

-----------------------------------------------------------
Total PK formation time     :      0.217u      0.000s      0.137w     12 calls
HF: Form H                  :      0.000u      0.017s      0.005w     12 calls
HF: Form S/X                :      0.000u      0.000s      0.001w     12 calls
HF: Guess                   :      0.950u      0.000s      0.556w     12 calls
| SAD Guess                 :      0.900u      0.000s      0.533w     12 calls
HF: Form G                  :      0.000u      0.000s      0.002w     93 calls
| JK: D                     :      0.000u      0.000s      0.000w     93 calls
| JK: USO2AO                :      0.000u      0.000s      0.000w     93 calls
| JK: JK                    :      0.000u      0.000s      0.001w     93 calls
| | PK computes JK          :      0.000u      0.000s      0.000w     93 calls
| JK: AO2USO                :      0.000u      0.000s      0.000w     93 calls
HF: Form F                  :      0.000u      0.000s      0.000w     93 calls
HF: DIIS                    :      0.017u      0.000s      0.006w     93 calls
| DIISManager::add_entry    :      0.000u      0.000s      0.003w     81 calls
| DIISManager::extrapolate  :      0.017u      0.000s      0.003w     69 calls
| | bMatrix setup           :      0.000u      0.000s      0.001w     69 calls
| | bMatrix pseudoinverse   :      0.017u      0.000s      0.001w     69 calls
| | New vector              :      0.000u      0.000s      0.001w     69 calls
HF: Form C                  :      0.000u      0.000s      0.001w     93 calls
HF: Form D                  :      0.000u      0.000s      0.000w     93 calls

***********************************************************

Host: hrgrimsl-XPS-13-9370

Timers On : Sun Oct 11 21:19:36 2020
Timers Off: Sun Oct 11 22:58:19 2020

Wall Time:     5922.70 seconds

Total PK formation time     :      0.750u      0.000s      0.460w     40 calls
HF: Form H                  :      0.000u      0.000s      0.019w     40 calls
HF: Form S/X                :      0.000u      0.000s      0.003w     40 calls
HF: Guess                   :      3.117u      0.017s      1.888w     40 calls
SAD Guess                   :      3.017u      0.000s      1.809w     40 calls
HF: Form G                  :      0.017u      0.000s      0.007w    312 calls
JK: D                       :      0.000u      0.000s      0.001w    312 calls
JK: USO2AO                  :      0.000u      0.000s      0.001w    312 calls
JK: JK                      :      0.017u      0.000s      0.002w    312 calls
PK computes JK              :      0.000u      0.000s      0.002w    312 calls
JK: AO2USO                  :      0.000u      0.000s      0.000w    312 calls
HF: Form F                  :      0.000u      0.000s      0.001w    312 calls
HF: DIIS                    :      0.050u      0.017s      0.022w    312 calls
DIISManager::add_entry      :      0.033u      0.000s      0.009w    272 calls
DIISManager::extrapolate    :      0.000u      0.000s      0.010w    232 calls
bMatrix setup               :      0.000u      0.000s      0.003w    232 calls
bMatrix pseudoinverse       :      0.000u      0.000s      0.003w    232 calls
New vector                  :      0.000u      0.000s      0.002w    232 calls
HF: Form C                  :      0.000u      0.000s      0.005w    312 calls
HF: Form D                  :      0.000u      0.000s      0.001w    312 calls

-----------------------------------------------------------
Total PK formation time     :      0.750u      0.000s      0.460w     40 calls
HF: Form H                  :      0.000u      0.000s      0.019w     40 calls
HF: Form S/X                :      0.000u      0.000s      0.003w     40 calls
HF: Guess                   :      3.117u      0.017s      1.888w     40 calls
| SAD Guess                 :      3.017u      0.000s      1.809w     40 calls
HF: Form G                  :      0.017u      0.000s      0.007w    312 calls
| JK: D                     :      0.000u      0.000s      0.001w    312 calls
| JK: USO2AO                :      0.000u      0.000s      0.001w    312 calls
| JK: JK                    :      0.017u      0.000s      0.002w    312 calls
| | PK computes JK          :      0.000u      0.000s      0.002w    312 calls
| JK: AO2USO                :      0.000u      0.000s      0.000w    312 calls
HF: Form F                  :      0.000u      0.000s      0.001w    312 calls
HF: DIIS                    :      0.050u      0.017s      0.022w    312 calls
| DIISManager::add_entry    :      0.033u      0.000s      0.009w    272 calls
| DIISManager::extrapolate  :      0.000u      0.000s      0.010w    232 calls
| | bMatrix setup           :      0.000u      0.000s      0.003w    232 calls
| | bMatrix pseudoinverse   :      0.000u      0.000s      0.003w    232 calls
| | New vector              :      0.000u      0.000s      0.002w    232 calls
HF: Form C                  :      0.000u      0.000s      0.005w    312 calls
HF: Form D                  :      0.000u      0.000s      0.001w    312 calls

***********************************************************

Host: hrgrimsl-XPS-13-9370

Timers On : Sun Oct 11 23:19:21 2020
Timers Off: Mon Oct 12 11:06:10 2020

Wall Time:    42409.09 seconds

Total PK formation time     :      0.783u      0.000s      0.496w     42 calls
HF: Form H                  :      0.067u      0.000s      0.019w     42 calls
HF: Form S/X                :      0.017u      0.000s      0.003w     42 calls
HF: Guess                   :      3.333u      0.050s      2.027w     42 calls
SAD Guess                   :      3.217u      0.033s      1.942w     42 calls
HF: Form G                  :      0.017u      0.000s      0.009w    442 calls
JK: D                       :      0.000u      0.000s      0.001w    442 calls
JK: USO2AO                  :      0.017u      0.000s      0.001w    442 calls
JK: JK                      :      0.000u      0.000s      0.003w    442 calls
PK computes JK              :      0.000u      0.000s      0.002w    442 calls
JK: AO2USO                  :      0.000u      0.000s      0.000w    442 calls
HF: Form F                  :      0.000u      0.000s      0.001w    442 calls
HF: DIIS                    :      0.050u      0.017s      0.036w    442 calls
DIISManager::add_entry      :      0.000u      0.017s      0.012w    400 calls
DIISManager::extrapolate    :      0.050u      0.000s      0.020w    358 calls
bMatrix setup               :      0.017u      0.000s      0.007w    358 calls
bMatrix pseudoinverse       :      0.017u      0.000s      0.006w    358 calls
New vector                  :      0.017u      0.000s      0.005w    358 calls
HF: Form C                  :      0.017u      0.000s      0.007w    442 calls
HF: Form D                  :      0.000u      0.000s      0.001w    442 calls

-----------------------------------------------------------
Total PK formation time     :      0.783u      0.000s      0.496w     42 calls
HF: Form H                  :      0.067u      0.000s      0.019w     42 calls
HF: Form S/X                :      0.017u      0.000s      0.003w     42 calls
HF: Guess                   :      3.333u      0.050s      2.027w     42 calls
| SAD Guess                 :      3.217u      0.033s      1.942w     42 calls
HF: Form G                  :      0.017u      0.000s      0.009w    442 calls
| JK: D                     :      0.000u      0.000s      0.001w    442 calls
| JK: USO2AO                :      0.017u      0.000s      0.001w    442 calls
| JK: JK                    :      0.000u      0.000s      0.003w    442 calls
| | PK computes JK          :      0.000u      0.000s      0.002w    442 calls
| JK: AO2USO                :      0.000u      0.000s      0.000w    442 calls
HF: Form F                  :      0.000u      0.000s      0.001w    442 calls
HF: DIIS                    :      0.050u      0.017s      0.036w    442 calls
| DIISManager::add_entry    :      0.000u      0.017s      0.012w    400 calls
| DIISManager::extrapolate  :      0.050u      0.000s      0.020w    358 calls
| | bMatrix setup           :      0.017u      0.000s      0.007w    358 calls
| | bMatrix pseudoinverse   :      0.017u      0.000s      0.006w    358 calls
| | New vector              :      0.017u      0.000s      0.005w    358 calls
HF: Form C                  :      0.017u      0.000s      0.007w    442 calls
HF: Form D                  :      0.000u      0.000s      0.001w    442 calls

***********************************************************

Host: hrgrimsl-XPS-13-9370

Timers On : Mon Oct 12 12:51:52 2020
Timers Off: Mon Oct 12 12:51:53 2020

Wall Time:        0.88 seconds


-----------------------------------------------------------

***********************************************************

Host: hrgrimsl-XPS-13-9370

Timers On : Mon Oct 12 12:52:23 2020
Timers Off: Mon Oct 12 12:53:32 2020

Wall Time:       69.02 seconds

Total PK formation time     :      2.333u      0.017s      1.453w    120 calls
HF: Form H                  :      0.050u      0.000s      0.048w    120 calls
HF: Form S/X                :      0.000u      0.000s      0.007w    120 calls
HF: Guess                   :      9.850u      0.033s      5.886w    120 calls
SAD Guess                   :      9.417u      0.017s      5.643w    120 calls
HF: Form G                  :      0.017u      0.000s      0.035w   1602 calls
JK: D                       :      0.000u      0.000s      0.004w   1602 calls
JK: USO2AO                  :      0.000u      0.000s      0.003w   1602 calls
JK: JK                      :      0.017u      0.000s      0.012w   1602 calls
PK computes JK              :      0.000u      0.000s      0.009w   1602 calls
JK: AO2USO                  :      0.000u      0.000s      0.002w   1602 calls
HF: Form F                  :      0.017u      0.000s      0.005w   1602 calls
HF: DIIS                    :      0.183u      0.017s      0.154w   1602 calls
DIISManager::add_entry      :      0.083u      0.017s      0.043w   1482 calls
DIISManager::extrapolate    :      0.100u      0.000s      0.095w   1362 calls
bMatrix setup               :      0.050u      0.000s      0.037w   1362 calls
bMatrix pseudoinverse       :      0.000u      0.000s      0.029w   1362 calls
New vector                  :      0.017u      0.000s      0.022w   1362 calls
HF: Form C                  :      0.083u      0.000s      0.023w   1602 calls
HF: Form D                  :      0.000u      0.000s      0.004w   1602 calls
CIWave: CIvect write        :      0.000u      0.000s      0.003w    560 calls
CIWave: CIvect read         :      0.000u      0.000s      0.004w   1560 calls
CIWave: s2                  :      0.000u      0.000s      0.000w     80 calls
CIWave: s3                  :      0.000u      0.000s      0.000w     80 calls

-----------------------------------------------------------
Total PK formation time     :      2.333u      0.017s      1.453w    120 calls
HF: Form H                  :      0.050u      0.000s      0.048w    120 calls
HF: Form S/X                :      0.000u      0.000s      0.007w    120 calls
HF: Guess                   :      9.850u      0.033s      5.886w    120 calls
| SAD Guess                 :      9.417u      0.017s      5.643w    120 calls
HF: Form G                  :      0.017u      0.000s      0.035w   1602 calls
| JK: D                     :      0.000u      0.000s      0.004w   1602 calls
| JK: USO2AO                :      0.000u      0.000s      0.003w   1602 calls
| JK: JK                    :      0.017u      0.000s      0.012w   1602 calls
| | PK computes JK          :      0.000u      0.000s      0.009w   1602 calls
| JK: AO2USO                :      0.000u      0.000s      0.002w   1602 calls
HF: Form F                  :      0.017u      0.000s      0.005w   1602 calls
HF: DIIS                    :      0.183u      0.017s      0.154w   1602 calls
| DIISManager::add_entry    :      0.083u      0.017s      0.043w   1482 calls
| DIISManager::extrapolate  :      0.100u      0.000s      0.095w   1362 calls
| | bMatrix setup           :      0.050u      0.000s      0.037w   1362 calls
| | bMatrix pseudoinverse   :      0.000u      0.000s      0.029w   1362 calls
| | New vector              :      0.017u      0.000s      0.022w   1362 calls
HF: Form C                  :      0.083u      0.000s      0.023w   1602 calls
HF: Form D                  :      0.000u      0.000s      0.004w   1602 calls
CIWave: CIvect write        :      0.000u      0.000s      0.003w    560 calls
CIWave: CIvect read         :      0.000u      0.000s      0.004w   1560 calls
CIWave: s2                  :      0.000u      0.000s      0.000w     80 calls
CIWave: s3                  :      0.000u      0.000s      0.000w     80 calls

***********************************************************

Host: hrgrimsl-XPS-13-9370

Timers On : Mon Oct 12 12:59:57 2020
Timers Off: Mon Oct 12 12:59:58 2020

Wall Time:        0.37 seconds


-----------------------------------------------------------

***********************************************************

Host: hrgrimsl-XPS-13-9370

Timers On : Mon Oct 12 13:00:34 2020
Timers Off: Mon Oct 12 13:00:35 2020

Wall Time:        0.39 seconds


-----------------------------------------------------------

***********************************************************

Host: hrgrimsl-XPS-13-9370

Timers On : Mon Oct 12 13:01:38 2020
Timers Off: Mon Oct 12 14:58:51 2020

Wall Time:     7032.80 seconds

Total PK formation time     :      0.733u      0.000s      0.450w     33 calls
HF: Form H                  :      0.033u      0.000s      0.019w     33 calls
HF: Form S/X                :      0.017u      0.000s      0.003w     33 calls
HF: Guess                   :      3.017u      0.033s      1.849w     33 calls
SAD Guess                   :      2.917u      0.017s      1.770w     33 calls
HF: Form G                  :      0.017u      0.000s      0.007w    261 calls
JK: D                       :      0.000u      0.000s      0.001w    261 calls
JK: USO2AO                  :      0.000u      0.000s      0.001w    261 calls
JK: JK                      :      0.000u      0.000s      0.002w    261 calls
PK computes JK              :      0.000u      0.000s      0.002w    261 calls
JK: AO2USO                  :      0.000u      0.000s      0.000w    261 calls
HF: Form F                  :      0.000u      0.000s      0.001w    261 calls
HF: DIIS                    :      0.050u      0.000s      0.024w    261 calls
DIISManager::add_entry      :      0.017u      0.000s      0.010w    228 calls
DIISManager::extrapolate    :      0.033u      0.000s      0.011w    195 calls
bMatrix setup               :      0.000u      0.000s      0.004w    195 calls
bMatrix pseudoinverse       :      0.017u      0.000s      0.004w    195 calls
New vector                  :      0.017u      0.000s      0.003w    195 calls
HF: Form C                  :      0.000u      0.000s      0.006w    261 calls
HF: Form D                  :      0.000u      0.000s      0.001w    261 calls

-----------------------------------------------------------
Total PK formation time     :      0.733u      0.000s      0.450w     33 calls
HF: Form H                  :      0.033u      0.000s      0.019w     33 calls
HF: Form S/X                :      0.017u      0.000s      0.003w     33 calls
HF: Guess                   :      3.017u      0.033s      1.849w     33 calls
| SAD Guess                 :      2.917u      0.017s      1.770w     33 calls
HF: Form G                  :      0.017u      0.000s      0.007w    261 calls
| JK: D                     :      0.000u      0.000s      0.001w    261 calls
| JK: USO2AO                :      0.000u      0.000s      0.001w    261 calls
| JK: JK                    :      0.000u      0.000s      0.002w    261 calls
| | PK computes JK          :      0.000u      0.000s      0.002w    261 calls
| JK: AO2USO                :      0.000u      0.000s      0.000w    261 calls
HF: Form F                  :      0.000u      0.000s      0.001w    261 calls
HF: DIIS                    :      0.050u      0.000s      0.024w    261 calls
| DIISManager::add_entry    :      0.017u      0.000s      0.010w    228 calls
| DIISManager::extrapolate  :      0.033u      0.000s      0.011w    195 calls
| | bMatrix setup           :      0.000u      0.000s      0.004w    195 calls
| | bMatrix pseudoinverse   :      0.017u      0.000s      0.004w    195 calls
| | New vector              :      0.017u      0.000s      0.003w    195 calls
HF: Form C                  :      0.000u      0.000s      0.006w    261 calls
HF: Form D                  :      0.000u      0.000s      0.001w    261 calls

***********************************************************
